 Entering Gaussian System, Link 0=g09
 Initial command:
 /opt/software/gaussian/g09.e01/l1.exe "/localscratch/enas93.64623494.0/Gau-9989.inp" -scrdir="/localscratch/enas93.64623494.0/"
 Entering Link 1 = /opt/software/gaussian/g09.e01/l1.exe PID=      9990.
  
 Copyright (c) 1988,1990,1992,1993,1995,1998,2003,2009,2015,
            Gaussian, Inc.  All Rights Reserved.
  
 This is part of the Gaussian(R) 09 program.  It is based on
 the Gaussian(R) 03 system (copyright 2003, Gaussian, Inc.),
 the Gaussian(R) 98 system (copyright 1998, Gaussian, Inc.),
 the Gaussian(R) 94 system (copyright 1995, Gaussian, Inc.),
 the Gaussian 92(TM) system (copyright 1992, Gaussian, Inc.),
 the Gaussian 90(TM) system (copyright 1990, Gaussian, Inc.),
 the Gaussian 88(TM) system (copyright 1988, Gaussian, Inc.),
 the Gaussian 86(TM) system (copyright 1986, Carnegie Mellon
 University), and the Gaussian 82(TM) system (copyright 1983,
 Carnegie Mellon University). Gaussian is a federally registered
 trademark of Gaussian, Inc.
  
 This software contains proprietary and confidential information,
 including trade secrets, belonging to Gaussian, Inc.
  
 This software is provided under written license and may be
 used, copied, transmitted, or stored only in accord with that
 written license.
  
 The following legend is applicable only to US Government
 contracts under FAR:
  
                    RESTRICTED RIGHTS LEGEND
  
 Use, reproduction and disclosure by the US Government is
 subject to restrictions as set forth in subparagraphs (a)
 and (c) of the Commercial Computer Software - Restricted
 Rights clause in FAR 52.227-19.
  
 Gaussian, Inc.
 340 Quinnipiac St., Bldg. 40, Wallingford CT 06492
  
  
 ---------------------------------------------------------------
 Warning -- This program may not be used in any manner that
 competes with the business of Gaussian, Inc. or will provide
 assistance to any competitor of Gaussian, Inc.  The licensee
 of this program is prohibited from giving any competitor of
 Gaussian, Inc. access to this program.  By using this program,
 the user acknowledges that Gaussian, Inc. is engaged in the
 business of creating and licensing software in the field of
 computational chemistry and represents and warrants to the
 licensee that it is not a competitor of Gaussian, Inc. and that
 it will not use this program in any manner prohibited above.
 ---------------------------------------------------------------
  

 Cite this work as:
 Gaussian 09, Revision E.01,
 M. J. Frisch, G. W. Trucks, H. B. Schlegel, G. E. Scuseria, 
 M. A. Robb, J. R. Cheeseman, G. Scalmani, V. Barone, B. Mennucci, 
 G. A. Petersson, H. Nakatsuji, M. Caricato, X. Li, H. P. Hratchian, 
 A. F. Izmaylov, J. Bloino, G. Zheng, J. L. Sonnenberg, M. Hada, 
 M. Ehara, K. Toyota, R. Fukuda, J. Hasegawa, M. Ishida, T. Nakajima, 
 Y. Honda, O. Kitao, H. Nakai, T. Vreven, J. A. Montgomery, Jr., 
 J. E. Peralta, F. Ogliaro, M. Bearpark, J. J. Heyd, E. Brothers, 
 K. N. Kudin, V. N. Staroverov, T. Keith, R. Kobayashi, J. Normand, 
 K. Raghavachari, A. Rendell, J. C. Burant, S. S. Iyengar, J. Tomasi, 
 M. Cossi, N. Rega, J. M. Millam, M. Klene, J. E. Knox, J. B. Cross, 
 V. Bakken, C. Adamo, J. Jaramillo, R. Gomperts, R. E. Stratmann, 
 O. Yazyev, A. J. Austin, R. Cammi, C. Pomelli, J. W. Ochterski, 
 R. L. Martin, K. Morokuma, V. G. Zakrzewski, G. A. Voth, 
 P. Salvador, J. J. Dannenberg, S. Dapprich, A. D. Daniels, 
 O. Farkas, J. B. Foresman, J. V. Ortiz, J. Cioslowski, 
 and D. J. Fox, Gaussian, Inc., Wallingford CT, 2013.
 
 ******************************************
 Gaussian 09:  EM64L-G09RevE.01 30-Nov-2015
                25-Mar-2021 
 ******************************************
 %nprocshared=16
 Will use up to   16 processors via shared memory.
 %mem=10GB
 ---------------------------------------------------------------
 # opt=(calcall,tight,ts,noeigentest) freq b3lyp/6-31g(d) nosymm
 ---------------------------------------------------------------
 1/5=1,7=10,10=4,11=1,14=-1,18=20,26=3,38=1/1,3;
 2/9=110,12=2,15=1,17=6,18=5,40=1/2;
 3/5=1,6=6,7=1,11=2,16=1,25=1,30=1,71=2,74=-5,140=1/1,2,3;
 4//1;
 5/5=2,38=5/2;
 8/6=4,10=90,11=11/1;
 11/6=1,8=1,9=11,15=111,16=1,31=1/1,2,10;
 10/6=1,31=1/2;
 6/7=2,8=2,9=2,10=2,18=1,28=1/1;
 7/10=1,25=1,30=1/1,2,3,16;
 1/5=1,7=10,10=4,11=1,14=-1,18=20,26=3/3(3);
 2/9=110,15=1/2;
 7/8=1,9=1,25=1,30=1,44=-1/16;
 99//99;
 2/9=110,15=1/2;
 3/5=1,6=6,7=1,11=2,16=1,25=1,30=1,71=2,74=-5,140=1/1,2,3;
 4/5=5,16=3,69=1/1;
 5/5=2,38=5/2;
 8/6=4,10=90,11=11/1;
 11/6=1,8=1,9=11,15=111,16=1,31=1/1,2,10;
 10/6=1,31=1/2;
 7/10=1,25=1,30=1/1,2,3,16;
 1/5=1,7=10,10=4,11=1,14=-1,18=20,26=3/3(-8);
 2/9=110,15=1/2;
 6/7=2,8=2,9=2,10=2,18=1,19=2,28=1/1;
 7/8=1,9=1,25=1,30=1,44=-1/16;
 99//99;
 -------------------
 Title Card Required
 -------------------
 Symbolic Z-matrix:
 Charge =  0 Multiplicity = 1
 C                    -1.0197    3.26522   2.69667 
 C                    -3.10233   3.03329   0.82461 
 C                    -3.18454   3.95388   1.81355 
 N                    -2.17528   4.0753    2.71831 
 H                    -3.88974   2.92551   0.08909 
 H                    -4.02816   4.6255    1.93216 
 O                    -0.16113   3.43368   3.55478 
 N                    -0.94811   2.3292    1.69365 
 C                    -1.91792   2.20199   0.76606 
 N                    -1.80085   1.30191  -0.20686 
 H                    -0.90114   0.77808  -0.44645 
 H                    -2.5333    1.27692  -0.90295 
 H                    -2.20591   4.75708   3.46471 
 C                    -0.29318  -1.67026  -2.12819 
 H                    -1.17537  -1.86238  -1.49776 
 C                     0.15902  -2.96853  -2.79711 
 C                     0.7858   -1.01944  -1.23945 
 H                     1.01484  -2.76354  -3.45502 
 H                     0.53699  -3.65287  -2.02927 
 C                    -0.95218  -3.65864  -3.61022 
 O                     0.50131   0.15029  -0.79204 
 O                     1.83705  -1.64497  -1.01132 
 H                    -1.78989  -3.86322  -2.91839 
 C                    -0.47947  -5.02959  -4.07955 
 O                    -0.53213  -5.41191  -5.22948 
 N                    -1.44839  -2.8086   -4.68941 
 H                    -0.64811  -2.50239  -5.24467 
 H                    -1.99356  -3.38839  -5.32861 
 H                    -0.62011  -0.94119  -2.87763 
 H                    -0.08222  -5.69272  -3.27625 
 S                     2.60899  -0.27645   2.44935 
 C                     3.60393   0.03716   0.95465 
 H                     3.1062   -0.52019   0.14613 
 H                     3.61698   1.10719   0.72867 
 H                     4.62016  -0.33252   1.1171 
 C                     0.72223   1.07411   2.01233 
 H                     0.10187   0.46833   2.65707 
 H                     1.19289   1.94168   2.44851 
 H                     0.79425   0.82454   0.95437 
 C                     3.4662    0.76086   3.68213 
 H                     2.89447   0.71394   4.61229 
 H                     4.47334   0.37394   3.85865 
 H                     3.52242   1.80015   3.34547 
 
 Add virtual bond connecting atoms O21        and H11        Dist= 2.98D+00.
 Add virtual bond connecting atoms H39        and O21        Dist= 3.58D+00.
 Add virtual bond connecting atoms H33        and O22        Dist= 3.88D+00.

 GradGradGradGradGradGradGradGradGradGradGradGradGradGradGradGradGradGrad
 Berny optimization.
 Initialization pass.
                           ----------------------------
                           !    Initial Parameters    !
                           ! (Angstroms and Degrees)  !
 --------------------------                            --------------------------
 ! Name  Definition              Value          Derivative Info.                !
 --------------------------------------------------------------------------------
 ! R1    R(1,4)                  1.4114         calculate D2E/DX2 analytically  !
 ! R2    R(1,7)                  1.2255         calculate D2E/DX2 analytically  !
 ! R3    R(1,8)                  1.3738         calculate D2E/DX2 analytically  !
 ! R4    R(2,3)                  1.3536         calculate D2E/DX2 analytically  !
 ! R5    R(2,5)                  1.0829         calculate D2E/DX2 analytically  !
 ! R6    R(2,9)                  1.4482         calculate D2E/DX2 analytically  !
 ! R7    R(3,4)                  1.3609         calculate D2E/DX2 analytically  !
 ! R8    R(3,6)                  1.0848         calculate D2E/DX2 analytically  !
 ! R9    R(4,13)                 1.0114         calculate D2E/DX2 analytically  !
 ! R10   R(8,9)                  1.348          calculate D2E/DX2 analytically  !
 ! R11   R(9,10)                 1.3306         calculate D2E/DX2 analytically  !
 ! R12   R(10,11)                1.0683         calculate D2E/DX2 analytically  !
 ! R13   R(10,12)                1.0108         calculate D2E/DX2 analytically  !
 ! R14   R(11,21)                1.5749         calculate D2E/DX2 analytically  !
 ! R15   R(14,15)                1.1012         calculate D2E/DX2 analytically  !
 ! R16   R(14,16)                1.5289         calculate D2E/DX2 analytically  !
 ! R17   R(14,17)                1.542          calculate D2E/DX2 analytically  !
 ! R18   R(14,29)                1.0955         calculate D2E/DX2 analytically  !
 ! R19   R(16,18)                1.0988         calculate D2E/DX2 analytically  !
 ! R20   R(16,19)                1.0958         calculate D2E/DX2 analytically  !
 ! R21   R(16,20)                1.5402         calculate D2E/DX2 analytically  !
 ! R22   R(17,21)                1.2843         calculate D2E/DX2 analytically  !
 ! R23   R(17,22)                1.2444         calculate D2E/DX2 analytically  !
 ! R24   R(20,23)                1.1055         calculate D2E/DX2 analytically  !
 ! R25   R(20,24)                1.5242         calculate D2E/DX2 analytically  !
 ! R26   R(20,26)                1.4606         calculate D2E/DX2 analytically  !
 ! R27   R(21,39)                1.8948         calculate D2E/DX2 analytically  !
 ! R28   R(22,33)                2.0532         calculate D2E/DX2 analytically  !
 ! R29   R(24,25)                1.213          calculate D2E/DX2 analytically  !
 ! R30   R(24,30)                1.1148         calculate D2E/DX2 analytically  !
 ! R31   R(26,27)                1.021          calculate D2E/DX2 analytically  !
 ! R32   R(26,28)                1.0208         calculate D2E/DX2 analytically  !
 ! R33   R(31,32)                1.8227         calculate D2E/DX2 analytically  !
 ! R34   R(31,40)                1.825          calculate D2E/DX2 analytically  !
 ! R35   R(32,33)                1.1009         calculate D2E/DX2 analytically  !
 ! R36   R(32,34)                1.0937         calculate D2E/DX2 analytically  !
 ! R37   R(32,35)                1.0935         calculate D2E/DX2 analytically  !
 ! R38   R(36,37)                1.0805         calculate D2E/DX2 analytically  !
 ! R39   R(36,38)                1.0791         calculate D2E/DX2 analytically  !
 ! R40   R(36,39)                1.0894         calculate D2E/DX2 analytically  !
 ! R41   R(40,41)                1.0928         calculate D2E/DX2 analytically  !
 ! R42   R(40,42)                1.0933         calculate D2E/DX2 analytically  !
 ! R43   R(40,43)                1.0939         calculate D2E/DX2 analytically  !
 ! A1    A(4,1,7)              118.9449         calculate D2E/DX2 analytically  !
 ! A2    A(4,1,8)              116.4182         calculate D2E/DX2 analytically  !
 ! A3    A(7,1,8)              124.6368         calculate D2E/DX2 analytically  !
 ! A4    A(3,2,5)              121.3168         calculate D2E/DX2 analytically  !
 ! A5    A(3,2,9)              118.0079         calculate D2E/DX2 analytically  !
 ! A6    A(5,2,9)              120.671          calculate D2E/DX2 analytically  !
 ! A7    A(2,3,4)              120.0912         calculate D2E/DX2 analytically  !
 ! A8    A(2,3,6)              123.2414         calculate D2E/DX2 analytically  !
 ! A9    A(4,3,6)              116.6667         calculate D2E/DX2 analytically  !
 ! A10   A(1,4,3)              123.0795         calculate D2E/DX2 analytically  !
 ! A11   A(1,4,13)             115.0254         calculate D2E/DX2 analytically  !
 ! A12   A(3,4,13)             121.894          calculate D2E/DX2 analytically  !
 ! A13   A(1,8,9)              121.9515         calculate D2E/DX2 analytically  !
 ! A14   A(2,9,8)              120.4246         calculate D2E/DX2 analytically  !
 ! A15   A(2,9,10)             119.3287         calculate D2E/DX2 analytically  !
 ! A16   A(8,9,10)             120.2442         calculate D2E/DX2 analytically  !
 ! A17   A(9,10,11)            124.7347         calculate D2E/DX2 analytically  !
 ! A18   A(9,10,12)            117.1633         calculate D2E/DX2 analytically  !
 ! A19   A(11,10,12)           116.3413         calculate D2E/DX2 analytically  !
 ! A20   A(15,14,16)           109.8338         calculate D2E/DX2 analytically  !
 ! A21   A(15,14,17)           107.7126         calculate D2E/DX2 analytically  !
 ! A22   A(15,14,29)           105.5858         calculate D2E/DX2 analytically  !
 ! A23   A(16,14,17)           113.805          calculate D2E/DX2 analytically  !
 ! A24   A(16,14,29)           110.7379         calculate D2E/DX2 analytically  !
 ! A25   A(17,14,29)           108.7981         calculate D2E/DX2 analytically  !
 ! A26   A(14,16,18)           109.5073         calculate D2E/DX2 analytically  !
 ! A27   A(14,16,19)           109.0114         calculate D2E/DX2 analytically  !
 ! A28   A(14,16,20)           113.4579         calculate D2E/DX2 analytically  !
 ! A29   A(18,16,19)           105.5104         calculate D2E/DX2 analytically  !
 ! A30   A(18,16,20)           109.2349         calculate D2E/DX2 analytically  !
 ! A31   A(19,16,20)           109.8136         calculate D2E/DX2 analytically  !
 ! A32   A(14,17,21)           115.4813         calculate D2E/DX2 analytically  !
 ! A33   A(14,17,22)           118.9893         calculate D2E/DX2 analytically  !
 ! A34   A(21,17,22)           125.5294         calculate D2E/DX2 analytically  !
 ! A35   A(16,20,23)           107.4114         calculate D2E/DX2 analytically  !
 ! A36   A(16,20,24)           109.9874         calculate D2E/DX2 analytically  !
 ! A37   A(16,20,26)           111.9871         calculate D2E/DX2 analytically  !
 ! A38   A(23,20,24)           105.1442         calculate D2E/DX2 analytically  !
 ! A39   A(23,20,26)           108.2179         calculate D2E/DX2 analytically  !
 ! A40   A(24,20,26)           113.6601         calculate D2E/DX2 analytically  !
 ! A41   A(11,21,17)           129.5508         calculate D2E/DX2 analytically  !
 ! A42   A(11,21,39)            78.0872         calculate D2E/DX2 analytically  !
 ! A43   A(17,21,39)           127.6576         calculate D2E/DX2 analytically  !
 ! A44   A(17,22,33)           110.498          calculate D2E/DX2 analytically  !
 ! A45   A(20,24,25)           124.1904         calculate D2E/DX2 analytically  !
 ! A46   A(20,24,30)           115.0659         calculate D2E/DX2 analytically  !
 ! A47   A(25,24,30)           120.7371         calculate D2E/DX2 analytically  !
 ! A48   A(20,26,27)           108.0634         calculate D2E/DX2 analytically  !
 ! A49   A(20,26,28)           108.2734         calculate D2E/DX2 analytically  !
 ! A50   A(27,26,28)           104.3829         calculate D2E/DX2 analytically  !
 ! A51   A(32,31,40)           101.522          calculate D2E/DX2 analytically  !
 ! A52   A(31,32,33)           105.5654         calculate D2E/DX2 analytically  !
 ! A53   A(31,32,34)           110.1377         calculate D2E/DX2 analytically  !
 ! A54   A(31,32,35)           109.1036         calculate D2E/DX2 analytically  !
 ! A55   A(33,32,34)           110.4228         calculate D2E/DX2 analytically  !
 ! A56   A(33,32,35)           110.9832         calculate D2E/DX2 analytically  !
 ! A57   A(34,32,35)           110.5092         calculate D2E/DX2 analytically  !
 ! A58   A(37,36,38)           117.3852         calculate D2E/DX2 analytically  !
 ! A59   A(37,36,39)           119.275          calculate D2E/DX2 analytically  !
 ! A60   A(38,36,39)           123.2231         calculate D2E/DX2 analytically  !
 ! A61   A(31,40,41)           107.7468         calculate D2E/DX2 analytically  !
 ! A62   A(31,40,42)           109.9141         calculate D2E/DX2 analytically  !
 ! A63   A(31,40,43)           110.871          calculate D2E/DX2 analytically  !
 ! A64   A(41,40,42)           109.2278         calculate D2E/DX2 analytically  !
 ! A65   A(41,40,43)           109.2468         calculate D2E/DX2 analytically  !
 ! A66   A(42,40,43)           109.7916         calculate D2E/DX2 analytically  !
 ! A67   L(10,11,21,7,-1)      176.3151         calculate D2E/DX2 analytically  !
 ! A68   L(22,33,32,1,-1)      170.7638         calculate D2E/DX2 analytically  !
 ! A69   L(21,39,36,2,-1)      172.6378         calculate D2E/DX2 analytically  !
 ! A70   L(10,11,21,7,-2)      184.8864         calculate D2E/DX2 analytically  !
 ! A71   L(22,33,32,1,-2)      169.3221         calculate D2E/DX2 analytically  !
 ! A72   L(21,39,36,2,-2)      166.9999         calculate D2E/DX2 analytically  !
 ! D1    D(7,1,4,3)           -179.4973         calculate D2E/DX2 analytically  !
 ! D2    D(7,1,4,13)             0.1282         calculate D2E/DX2 analytically  !
 ! D3    D(8,1,4,3)              0.4055         calculate D2E/DX2 analytically  !
 ! D4    D(8,1,4,13)          -179.969          calculate D2E/DX2 analytically  !
 ! D5    D(4,1,8,9)              0.9782         calculate D2E/DX2 analytically  !
 ! D6    D(7,1,8,9)           -179.1252         calculate D2E/DX2 analytically  !
 ! D7    D(5,2,3,4)           -179.4622         calculate D2E/DX2 analytically  !
 ! D8    D(5,2,3,6)              0.2392         calculate D2E/DX2 analytically  !
 ! D9    D(9,2,3,4)             -0.2177         calculate D2E/DX2 analytically  !
 ! D10   D(9,2,3,6)            179.4837         calculate D2E/DX2 analytically  !
 ! D11   D(3,2,9,8)              1.5559         calculate D2E/DX2 analytically  !
 ! D12   D(3,2,9,10)          -179.02           calculate D2E/DX2 analytically  !
 ! D13   D(5,2,9,8)           -179.1945         calculate D2E/DX2 analytically  !
 ! D14   D(5,2,9,10)             0.2296         calculate D2E/DX2 analytically  !
 ! D15   D(2,3,4,1)             -0.7517         calculate D2E/DX2 analytically  !
 ! D16   D(2,3,4,13)           179.648          calculate D2E/DX2 analytically  !
 ! D17   D(6,3,4,1)            179.5277         calculate D2E/DX2 analytically  !
 ! D18   D(6,3,4,13)            -0.0726         calculate D2E/DX2 analytically  !
 ! D19   D(1,8,9,2)             -1.9587         calculate D2E/DX2 analytically  !
 ! D20   D(1,8,9,10)           178.6225         calculate D2E/DX2 analytically  !
 ! D21   D(2,9,10,11)          167.7747         calculate D2E/DX2 analytically  !
 ! D22   D(2,9,10,12)            3.4884         calculate D2E/DX2 analytically  !
 ! D23   D(8,9,10,11)          -12.8001         calculate D2E/DX2 analytically  !
 ! D24   D(8,9,10,12)         -177.0864         calculate D2E/DX2 analytically  !
 ! D25   D(9,10,21,17)         148.0097         calculate D2E/DX2 analytically  !
 ! D26   D(9,10,21,39)          18.5604         calculate D2E/DX2 analytically  !
 ! D27   D(12,10,21,17)        -50.8991         calculate D2E/DX2 analytically  !
 ! D28   D(12,10,21,39)        179.6516         calculate D2E/DX2 analytically  !
 ! D29   D(15,14,16,18)        177.8079         calculate D2E/DX2 analytically  !
 ! D30   D(15,14,16,19)        -67.2232         calculate D2E/DX2 analytically  !
 ! D31   D(15,14,16,20)         55.483          calculate D2E/DX2 analytically  !
 ! D32   D(17,14,16,18)        -61.3533         calculate D2E/DX2 analytically  !
 ! D33   D(17,14,16,19)         53.6155         calculate D2E/DX2 analytically  !
 ! D34   D(17,14,16,20)        176.3217         calculate D2E/DX2 analytically  !
 ! D35   D(29,14,16,18)         61.5778         calculate D2E/DX2 analytically  !
 ! D36   D(29,14,16,19)        176.5466         calculate D2E/DX2 analytically  !
 ! D37   D(29,14,16,20)        -60.7472         calculate D2E/DX2 analytically  !
 ! D38   D(15,14,17,21)        -66.063          calculate D2E/DX2 analytically  !
 ! D39   D(15,14,17,22)        113.8327         calculate D2E/DX2 analytically  !
 ! D40   D(16,14,17,21)        171.9183         calculate D2E/DX2 analytically  !
 ! D41   D(16,14,17,22)         -8.186          calculate D2E/DX2 analytically  !
 ! D42   D(29,14,17,21)         47.9321         calculate D2E/DX2 analytically  !
 ! D43   D(29,14,17,22)       -132.1721         calculate D2E/DX2 analytically  !
 ! D44   D(14,16,20,23)        -58.3047         calculate D2E/DX2 analytically  !
 ! D45   D(14,16,20,24)       -172.2211         calculate D2E/DX2 analytically  !
 ! D46   D(14,16,20,26)         60.3783         calculate D2E/DX2 analytically  !
 ! D47   D(18,16,20,23)        179.2195         calculate D2E/DX2 analytically  !
 ! D48   D(18,16,20,24)         65.303          calculate D2E/DX2 analytically  !
 ! D49   D(18,16,20,26)        -62.0976         calculate D2E/DX2 analytically  !
 ! D50   D(19,16,20,23)         63.9575         calculate D2E/DX2 analytically  !
 ! D51   D(19,16,20,24)        -49.959          calculate D2E/DX2 analytically  !
 ! D52   D(19,16,20,26)       -177.3596         calculate D2E/DX2 analytically  !
 ! D53   D(14,17,21,11)         30.0767         calculate D2E/DX2 analytically  !
 ! D54   D(14,17,21,39)        137.4824         calculate D2E/DX2 analytically  !
 ! D55   D(22,17,21,11)       -149.8113         calculate D2E/DX2 analytically  !
 ! D56   D(22,17,21,39)        -42.4055         calculate D2E/DX2 analytically  !
 ! D57   D(14,17,22,33)        178.3153         calculate D2E/DX2 analytically  !
 ! D58   D(21,17,22,33)         -1.8004         calculate D2E/DX2 analytically  !
 ! D59   D(16,20,24,25)       -128.2233         calculate D2E/DX2 analytically  !
 ! D60   D(16,20,24,30)         52.707          calculate D2E/DX2 analytically  !
 ! D61   D(23,20,24,25)        116.4167         calculate D2E/DX2 analytically  !
 ! D62   D(23,20,24,30)        -62.653          calculate D2E/DX2 analytically  !
 ! D63   D(26,20,24,25)         -1.7594         calculate D2E/DX2 analytically  !
 ! D64   D(26,20,24,30)        179.1709         calculate D2E/DX2 analytically  !
 ! D65   D(16,20,26,27)         53.1378         calculate D2E/DX2 analytically  !
 ! D66   D(16,20,26,28)        165.648          calculate D2E/DX2 analytically  !
 ! D67   D(23,20,26,27)        171.3423         calculate D2E/DX2 analytically  !
 ! D68   D(23,20,26,28)        -76.1475         calculate D2E/DX2 analytically  !
 ! D69   D(24,20,26,27)        -72.2676         calculate D2E/DX2 analytically  !
 ! D70   D(24,20,26,28)         40.2426         calculate D2E/DX2 analytically  !
 ! D71   D(11,21,36,37)         68.835          calculate D2E/DX2 analytically  !
 ! D72   D(11,21,36,38)       -102.5554         calculate D2E/DX2 analytically  !
 ! D73   D(17,21,36,37)        -59.3592         calculate D2E/DX2 analytically  !
 ! D74   D(17,21,36,38)        129.2504         calculate D2E/DX2 analytically  !
 ! D75   D(17,22,32,31)         73.8863         calculate D2E/DX2 analytically  !
 ! D76   D(17,22,32,34)        -41.526          calculate D2E/DX2 analytically  !
 ! D77   D(17,22,32,35)       -171.1682         calculate D2E/DX2 analytically  !
 ! D78   D(40,31,32,33)       -176.9571         calculate D2E/DX2 analytically  !
 ! D79   D(40,31,32,34)        -57.7505         calculate D2E/DX2 analytically  !
 ! D80   D(40,31,32,35)         63.7109         calculate D2E/DX2 analytically  !
 ! D81   D(32,31,40,41)        175.2679         calculate D2E/DX2 analytically  !
 ! D82   D(32,31,40,42)        -65.804          calculate D2E/DX2 analytically  !
 ! D83   D(32,31,40,43)         55.7669         calculate D2E/DX2 analytically  !
 --------------------------------------------------------------------------------
 Trust Radius=3.00D-01 FncErr=1.00D-07 GrdErr=1.00D-06
 Number of steps in this run=    208 maximum allowed number of steps=    258.
 Search for a saddle point of order  1.
 GradGradGradGradGradGradGradGradGradGradGradGradGradGradGradGradGradGrad

                          Input orientation:                          
 ---------------------------------------------------------------------
 Center     Atomic      Atomic             Coordinates (Angstroms)
 Number     Number       Type             X           Y           Z
 ---------------------------------------------------------------------
      1          6           0       -1.019703    3.265220    2.696674
      2          6           0       -3.102334    3.033285    0.824608
      3          6           0       -3.184536    3.953880    1.813548
      4          7           0       -2.175278    4.075303    2.718311
      5          1           0       -3.889745    2.925511    0.089093
      6          1           0       -4.028158    4.625504    1.932164
      7          8           0       -0.161126    3.433682    3.554779
      8          7           0       -0.948106    2.329200    1.693649
      9          6           0       -1.917924    2.201993    0.766059
     10          7           0       -1.800854    1.301911   -0.206858
     11          1           0       -0.901138    0.778079   -0.446445
     12          1           0       -2.533297    1.276924   -0.902945
     13          1           0       -2.205907    4.757083    3.464713
     14          6           0       -0.293178   -1.670265   -2.128193
     15          1           0       -1.175367   -1.862379   -1.497756
     16          6           0        0.159022   -2.968529   -2.797114
     17          6           0        0.785803   -1.019442   -1.239450
     18          1           0        1.014844   -2.763537   -3.455015
     19          1           0        0.536994   -3.652866   -2.029274
     20          6           0       -0.952184   -3.658640   -3.610222
     21          8           0        0.501312    0.150286   -0.792038
     22          8           0        1.837050   -1.644968   -1.011319
     23          1           0       -1.789893   -3.863217   -2.918391
     24          6           0       -0.479466   -5.029592   -4.079548
     25          8           0       -0.532135   -5.411911   -5.229482
     26          7           0       -1.448391   -2.808598   -4.689407
     27          1           0       -0.648114   -2.502386   -5.244674
     28          1           0       -1.993557   -3.388388   -5.328612
     29          1           0       -0.620112   -0.941193   -2.877629
     30          1           0       -0.082225   -5.692723   -3.276254
     31         16           0        2.608990   -0.276455    2.449349
     32          6           0        3.603930    0.037161    0.954649
     33          1           0        3.106202   -0.520192    0.146134
     34          1           0        3.616978    1.107185    0.728668
     35          1           0        4.620158   -0.332522    1.117103
     36          6           0        0.722231    1.074107    2.012334
     37          1           0        0.101868    0.468334    2.657067
     38          1           0        1.192893    1.941679    2.448514
     39          1           0        0.794245    0.824538    0.954373
     40          6           0        3.466198    0.760864    3.682130
     41          1           0        2.894473    0.713936    4.612288
     42          1           0        4.473341    0.373938    3.858654
     43          1           0        3.522416    1.800147    3.345469
 ---------------------------------------------------------------------
                    Distance matrix (angstroms):
                    1          2          3          4          5
     1  C    0.000000
     2  C    2.809942   0.000000
     3  C    2.437348   1.353608   0.000000
     4  N    1.411402   2.351881   1.360861   0.000000
     5  H    3.892560   1.082873   2.128053   3.342784   0.000000
     6  H    3.389048   2.149184   1.084826   2.086603   2.511184
     7  O    1.225511   4.032971   3.527534   2.273360   5.115840
     8  N    1.373797   2.427275   2.766872   2.367437   3.403443
     9  C    2.380027   1.448206   2.402217   2.717869   2.206771
    10  N    3.590999   2.399047   3.609648   4.048272   2.662166
    11  H    4.009878   3.398057   4.517431   4.744555   3.718876
    12  H    4.381957   2.528447   3.869049   4.590490   2.354130
    13  H    2.054901   3.277990   2.080672   1.011374   4.193421
    14  C    6.940187   6.223646   7.451730   7.748707   6.242821
    15  H    6.626443   5.751009   6.987873   7.350586   5.727986
    16  C    8.392302   7.731435   8.964225   9.245780   7.711187
    17  C    6.091901   5.983522   7.058209   7.098472   6.260066
    18  H    8.850343   8.298763   9.514002   9.749696   8.305478
    19  H    8.521608   8.129820   9.299444   9.466815   8.207225
    20  C    9.365967   8.311000   9.609950  10.067778   8.103409
    21  O    4.918070   4.889938   5.902701   5.906983   5.268742
    22  O    6.783819   7.046573   8.033884   7.920254   7.409208
    23  H    9.106962   7.955770   9.243553   9.743769   7.716292
    24  C   10.724409   9.794905  11.079204  11.488506   9.606833
    25  O   11.762409  10.704170  12.014888  12.484973  10.443821
    26  N    9.572316   8.201676   9.541160  10.138577   7.853297
    27  H    9.821831   8.573391   9.896227  10.440659   8.271596
    28  H   10.470153   8.962666  10.312021  10.976916   8.533017
    29  H    6.994744   5.971973   7.248803   7.674524   5.868845
    30  H   10.807381  10.103531  11.339637  11.650322  10.004835
    31  S    5.076617   6.798043   7.201730   6.472971   7.619511
    32  C    5.901949   7.346268   7.884267   7.267485   8.077556
    33  H    6.152860   7.185642   7.897530   7.458465   7.798679
    34  H    5.479870   6.990581   7.452599   6.805779   7.750242
    35  H    6.873633   8.429181   8.931491   8.256557   9.170062
    36  C    2.881602   4.458292   4.857513   4.230974   5.328872
    37  H    3.013646   4.494863   4.864258   4.266072   5.344641
    38  H    2.590159   4.719920   4.859426   3.996213   5.689288
    39  H    3.504704   4.480930   5.134361   4.743102   5.206012
    40  C    5.231274   7.514981   7.610467   6.613676   8.467911
    41  H    5.049693   7.462412   7.435357   6.370896   8.448430
    42  H    6.315318   8.583031   8.697214   7.694454   9.521624
    43  H    4.816453   7.194629   7.208922   6.167121   8.173773
                    6          7          8          9         10
     6  H    0.000000
     7  O    4.359731   0.000000
     8  N    3.849237   2.302829   0.000000
     9  C    3.418522   3.518573   1.348018   0.000000
    10  N    4.536802   4.624183   2.322591   1.330571   0.000000
    11  H    5.498974   4.858975   2.643517   2.128744   1.068312
    12  H    4.635239   5.490911   3.219071   2.004996   1.010759
    13  H    2.384663   2.437341   3.257813   3.727486   5.057936
    14  C    8.370979   7.639626   5.570559   5.100086   3.846875
    15  H    7.873715   7.389523   5.273144   4.711196   3.474246
    16  C    9.877646   9.024264   7.032682   6.613940   5.365370
    17  C    8.068381   6.611476   4.777333   4.659383   3.625703
    18  H   10.442772   9.430039   7.503192   7.146683   5.916633
    19  H   10.250123   9.049209   7.200749   6.936850   5.773781
    20  C   10.431045  10.112569   7.999081   7.377771   6.075376
    21  O    6.925673   5.487653   3.609310   3.534101   2.639819
    22  O    9.076540   7.115802   5.555894   5.661979   4.750326
    23  H   10.029761   9.889365   7.766952   7.097770   5.833616
    24  C   11.914478  11.402250   9.364894   8.822975   7.538682
    25  O   12.816437  12.471784  10.393631   9.789712   8.480083
    26  N   10.284273  10.420639   8.209181   7.422169   6.092106
    27  H   10.664826  10.625650   8.460174   7.737733   6.417248
    28  H   11.003678  11.349585   9.115697   8.270616   6.947547
    29  H    8.107836   7.792694   5.630243   4.984014   3.682212
    30  H   12.213264  11.400022   9.476335   9.057407   7.829418
    31  S    8.267310   4.760319   4.473640   5.428547   5.384552
    32  C    8.958638   5.698480   5.149815   5.934049   5.671012
    33  H    8.975922   6.158524   5.191459   5.747733   5.246319
    34  H    8.501475   5.260567   4.823329   5.642264   5.501457
    35  H   10.001986   6.556465   6.198607   7.020934   6.756748
    36  C    5.931698   2.954158   2.113491   3.129816   3.367887
    37  H    5.904631   3.109396   2.343809   3.265125   3.537975
    38  H    5.893124   2.298535   2.303013   3.546209   4.052508
    39  H    6.217635   3.805585   2.417917   3.047738   2.882860
    40  C    8.611806   4.507511   5.089186   6.290397   6.569535
    41  H    8.390843   4.225166   5.088511   6.337741   6.753960
    42  H    9.698591   5.561714   6.156491   7.331725   7.533594
    43  H    8.184818   4.034939   4.795203   6.034247   6.419071
                   11         12         13         14         15
    11  H    0.000000
    12  H    1.766687   0.000000
    13  H    5.729926   5.594205   0.000000
    14  C    3.031877   3.899396   8.732121   0.000000
    15  H    2.855254   3.471743   8.336989   1.101188   0.000000
    16  C    4.548259   5.372181  10.221959   1.528865   2.166216
    17  C    2.589538   4.050056   8.027934   1.541958   2.150222
    18  H    5.026482   5.952117  10.715204   2.160237   3.072454
    19  H    4.920045   5.915922  10.413196   2.151668   2.533878
    20  C    5.449456   5.847141  11.065754   2.565996   2.781884
    21  O    1.574936   3.238899   6.831657   2.393936   2.712952
    22  O    3.699718   5.258244   8.795830   2.405394   3.059174
    23  H    5.333107   5.570971  10.734368   2.770128   2.529664
    24  C    6.863402   7.353990  12.476998   3.889417   4.145017
    25  O    7.831321   8.213652  13.483285   4.865697   5.190251
    26  N    5.582693   5.675016  11.149127   3.031524   3.340136
    27  H    5.817944   6.057038  11.444651   3.245128   3.837577
    28  H    6.510636   6.453138  11.988176   4.010725   4.203998
    29  H    2.990907   3.532661   8.672393   1.095484   1.749555
    30  H    7.109832   7.759918  12.615431   4.188402   4.362287
    31  S    4.671045   6.331980   7.039226   5.596354   5.693518
    32  C    4.775737   6.530944   7.895080   5.254205   5.697738
    33  H    4.253873   6.011168   8.190305   4.248649   4.778669
    34  H    4.680019   6.365285   7.396870   5.582580   6.061505
    35  H    5.844897   7.605447   8.832356   6.038408   6.539576
    36  C    2.961174   4.374751   4.924196   5.070167   4.954247
    37  H    3.276240   4.502399   4.936748   5.256271   4.932150
    38  H    3.757621   5.055558   4.528907   6.016710   5.970976
    39  H    2.199721   3.837554   5.546858   4.112024   4.136645
    40  C    6.009913   7.568565   6.941888   7.335063   7.433488
    41  H    6.324678   7.758572   6.608921   7.828130   7.780336
    42  H    6.897988   8.519459   7.998719   7.920909   8.099392
    43  H    5.915325   7.415824   6.447587   7.520870   7.677245
                   16         17         18         19         20
    16  C    0.000000
    17  C    2.572569   0.000000
    18  H    1.098766   2.828967   0.000000
    19  H    1.095791   2.760552   1.746993   0.000000
    20  C    1.540187   3.950509   2.166679   2.171884   0.000000
    21  O    3.723506   1.284280   3.980644   3.999499   4.956080
    22  O    2.785077   1.244366   2.810493   2.599622   4.311496
    23  H    2.147893   4.188091   3.060034   2.499836   1.105549
    24  C    2.510037   5.074285   2.785320   2.670616   1.524217
    25  O    3.516280   6.078742   3.543411   3.805077   2.423304
    26  N    2.487997   4.482734   2.755591   3.425033   1.460628
    27  H    2.619028   4.505226   2.456931   3.614814   2.025047
    28  H    3.349382   5.482517   3.598789   4.166446   2.027402
    29  H    2.173390   2.160174   2.515431   3.067861   2.833987
    30  H    2.776510   5.171228   3.132993   2.469698   2.237377
    31  S    6.385529   4.181301   6.602151   5.979246   7.799970
    32  C    5.914160   3.724556   5.830301   5.650327   7.433382
    33  H    4.831452   2.748335   4.730185   4.598573   6.358503
    34  H    6.403128   4.051121   6.265524   6.304810   7.900398
    35  H    6.493948   4.552744   6.309706   6.131607   8.028802
    36  C    6.308003   3.867957   6.686183   6.221992   7.537619
    37  H    6.446967   4.226593   6.973956   6.255831   7.577721
    38  H    7.259177   4.747108   7.551319   7.195813   8.524858
    39  H    5.372571   2.865867   5.689082   5.386601   6.632076
    40  C    8.174741   5.880132   8.328828   7.789826   9.603776
    41  H    8.714498   6.457083   8.983719   8.290779  10.076004
    42  H    8.607246   6.444386   8.677252   8.147249  10.073833
    43  H    8.472545   6.038263   8.565145   8.218026   9.909694
                   21         22         23         24         25
    21  O    0.000000
    22  O    2.248381   0.000000
    23  H    5.087161   4.659642   0.000000
    24  C    6.212953   5.122105   2.103791   0.000000
    25  O    7.190060   6.131541   3.053121   1.212967   0.000000
    26  N    5.267430   5.067197   2.089340   2.498711   2.812196
    27  H    5.308843   4.983222   2.926963   2.787962   2.911875
    28  H    6.271131   6.029269   2.464976   2.558551   2.498045
    29  H    2.607414   3.164816   3.147741   4.263730   5.052353
    30  H    6.375939   5.019748   2.528100   1.114820   2.023950
    31  S    3.889859   3.800650   7.812021   8.646234   9.757255
    32  C    3.562296   3.133122   7.701085   8.227348   9.221871
    33  H    2.848712   2.053184   6.673745   7.144795   8.127955
    34  H    3.596606   3.710801   8.200012   8.806806   9.757730
    35  H    4.565393   3.741442   8.357019   8.664515   9.624212
    36  C    2.960870   4.216476   7.416197   8.706908   9.802335
    37  H    3.486694   4.575364   7.309366   8.714765   9.857834
    38  H    3.766769   5.024880   8.449704   9.695927  10.770452
    39  H    1.894829   3.324131   6.606899   7.825186   8.882153
    40  C    5.401994   5.520019   9.621616  10.456639  11.554508
    41  H    5.937311   6.189307   9.980217  10.950780  12.088345
    42  H    6.120128   5.894289  10.154306  10.804790  11.879607
    43  H    5.382200   5.804384   9.976485  10.853169  11.915660
                   26         27         28         29         30
    26  N    0.000000
    27  H    1.021044   0.000000
    28  H    1.020757   1.613153   0.000000
    29  H    2.730529   2.835667   3.725914   0.000000
    30  H    3.490213   3.791195   3.629783   4.798465   0.000000
    31  S    8.592783   8.646472   9.558464   6.264637   8.328333
    32  C    8.091950   7.934783   9.085462   5.786714   8.019966
    33  H    7.025922   6.861836   8.012923   4.817240   6.973800
    34  H    8.387303   8.179293   9.401006   5.929095   8.715633
    35  H    8.756358   8.540211   9.727630   6.617310   8.375306
    36  C    8.043652   8.205688   9.009931   5.456653   8.625909
    37  H    8.192208   8.474973   9.112419   5.756812   8.555514
    38  H    8.971702   9.073266   9.952224   6.321846   9.627200
    39  H    7.076818   7.181713   8.062040   4.449994   7.819277
    40  C   10.342963  10.356843  11.323369   7.913619  10.132088
    41  H   10.853121  10.956932  11.812849   8.437453  10.589386
    42  H   10.874962  10.833888  11.848279   8.546949  10.414628
    43  H   10.512311  10.473570  11.514623   7.962564  10.629382
                   31         32         33         34         35
    31  S    0.000000
    32  C    1.822742   0.000000
    33  H    2.368845   1.100941   0.000000
    34  H    2.427188   1.093704   1.802386   0.000000
    35  H    2.413052   1.093516   1.808332   1.797222   0.000000
    36  C    2.361114   3.240084   3.421668   3.166773   4.239561
    37  H    2.623646   3.917726   4.038315   4.059908   4.840228
    38  H    2.631625   3.416419   3.875889   3.087141   4.323285
    39  H    2.596235   2.917926   2.794046   2.845813   4.000360
    40  C    1.824989   2.825220   3.778091   2.977518   3.017695
    41  H    2.395972   3.786777   4.638365   3.969781   4.036011
    42  H    2.425893   3.050006   4.056025   3.326833   2.834915
    43  H    2.439191   2.971664   3.974035   2.708650   3.273978
                   36         37         38         39         40
    36  C    0.000000
    37  H    1.080505   0.000000
    38  H    1.079100   1.845149   0.000000
    39  H    1.089382   1.872280   1.907716   0.000000
    40  C    3.227336   3.529170   2.843246   3.818906   0.000000
    41  H    3.407069   3.417872   3.014075   4.219423   1.092825
    42  H    4.239099   4.534589   3.899698   4.708889   1.093256
    43  H    3.185187   3.734672   2.500247   3.756604   1.093897
                   41         42         43
    41  H    0.000000
    42  H    1.782242   0.000000
    43  H    1.782974   1.789326   0.000000
 Symmetry turned off by external request.
 Stoichiometry    C12H22N4O4S
 Framework group  C1[X(C12H22N4O4S)]
 Deg. of freedom   123
 Full point group                 C1      NOp   1
 Rotational constants (GHZ):      0.3225072      0.1119754      0.0853130
 Standard basis: 6-31G(d) (6D, 7F)
   363 basis functions,   700 primitive gaussians,   363 cartesian basis functions
    85 alpha electrons       85 beta electrons
       nuclear repulsion energy      1793.4584679985 Hartrees.
 NAtoms=   43 NActive=   43 NUniq=   43 SFac= 1.00D+00 NAtFMM=   60 NAOKFM=F Big=F
 Integral buffers will be    131072 words long.
 Raffenetti 2 integral format.
 Two-electron integral symmetry is turned off.
 One-electron integrals computed using PRISM.
 NBasis=   363 RedAO= T EigKep=  1.15D-03  NBF=   363
 NBsUse=   363 1.00D-06 EigRej= -1.00D+00 NBFU=   363
 ExpMin= 1.17D-01 ExpMax= 2.19D+04 ExpMxC= 3.30D+03 IAcc=1 IRadAn=         1 AccDes= 0.00D+00
 Harris functional with IExCor=  402 and IRadAn=       1 diagonalized for initial guess.
 HarFok:  IExCor=  402 AccDes= 0.00D+00 IRadAn=         1 IDoV= 1 UseB2=F ITyADJ=14
 ICtDFT=  3500011 ScaDFX=  1.000000  1.000000  1.000000  1.000000
 FoFCou: FMM=F IPFlag=           0 FMFlag=      100000 FMFlg1=           0
         NFxFlg=           0 DoJE=T BraDBF=F KetDBF=T FulRan=T
         wScrn=  0.000000 ICntrl=     500 IOpCl=  0 I1Cent=   200000004 NGrid=           0
         NMat0=    1 NMatS0=      1 NMatT0=    0 NMatD0=    1 NMtDS0=    0 NMtDT0=    0
 Symmetry not used in FoFCou.
 Requested convergence on RMS density matrix=1.00D-08 within 128 cycles.
 Requested convergence on MAX density matrix=1.00D-06.
 Requested convergence on             energy=1.00D-06.
 No special actions if energy rises.
 Integral accuracy reduced to 1.0D-05 until final iterations.
 Initial convergence to 1.0D-05 achieved.  Increase integral accuracy.
 SCF Done:  E(RB3LYP) =  -1388.57011035     A.U. after   15 cycles
            NFock= 15  Conv=0.86D-08     -V/T= 2.0076
 DoSCS=F DFT=T ScalE2(SS,OS)=  1.000000  1.000000
 Range of M.O.s used for correlation:     1   363
 NBasis=   363 NAE=    85 NBE=    85 NFC=     0 NFV=     0
 NROrb=    363 NOA=    85 NOB=    85 NVA=   278 NVB=   278
 Symmetrizing basis deriv contribution to polar:
 IMax=3 JMax=2 DiffMx= 0.00D+00
 G2DrvN: will do    44 centers at a time, making    1 passes.
 Calling FoFCou, ICntrl=  3107 FMM=F I1Cent=   0 AccDes= 0.00D+00.
 End of G2Drv F.D. properties file   721 does not exist.
 End of G2Drv F.D. properties file   722 does not exist.
 End of G2Drv F.D. properties file   788 does not exist.
          IDoAtm=1111111111111111111111111111111111111111111
          Differentiating once with respect to electric field.
                with respect to dipole field.
          Differentiating once with respect to nuclear coordinates.
          There are   132 degrees of freedom in the 1st order CPHF.  IDoFFX=6 NUNeed=     3.
    129 vectors produced by pass  0 Test12= 2.36D-14 1.00D-09 XBig12= 1.99D+02 7.91D+00.
 AX will form   129 AO Fock derivatives at one time.
    129 vectors produced by pass  1 Test12= 2.36D-14 1.00D-09 XBig12= 3.23D+01 1.07D+00.
    129 vectors produced by pass  2 Test12= 2.36D-14 1.00D-09 XBig12= 2.09D-01 5.04D-02.
    129 vectors produced by pass  3 Test12= 2.36D-14 1.00D-09 XBig12= 8.91D-04 3.19D-03.
    129 vectors produced by pass  4 Test12= 2.36D-14 1.00D-09 XBig12= 1.19D-06 8.64D-05.
    101 vectors produced by pass  5 Test12= 2.36D-14 1.00D-09 XBig12= 9.17D-10 2.92D-06.
     10 vectors produced by pass  6 Test12= 2.36D-14 1.00D-09 XBig12= 6.48D-13 7.65D-08.
      3 vectors produced by pass  7 Test12= 2.36D-14 1.00D-09 XBig12= 5.93D-16 2.76D-09.
 InvSVY:  IOpt=1 It=  1 EMax= 1.07D-14
 Solved reduced A of dimension   759 with   132 vectors.
 Isotropic polarizability for W=    0.000000      205.91 Bohr**3.
 End of Minotr F.D. properties file   721 does not exist.
 End of Minotr F.D. properties file   722 does not exist.
 End of Minotr F.D. properties file   788 does not exist.

 **********************************************************************

            Population analysis using the SCF density.

 **********************************************************************

 Alpha  occ. eigenvalues --  -88.91187 -19.13864 -19.12323 -19.06309 -19.05528
 Alpha  occ. eigenvalues --  -14.41044 -14.35760 -14.35457 -14.30116 -10.32945
 Alpha  occ. eigenvalues --  -10.30472 -10.28009 -10.25911 -10.24005 -10.23978
 Alpha  occ. eigenvalues --  -10.22920 -10.22000 -10.20654 -10.20120 -10.16628
 Alpha  occ. eigenvalues --  -10.15382  -7.97222  -5.93642  -5.93297  -5.92857
 Alpha  occ. eigenvalues --   -1.06417  -1.03346  -0.99046  -0.98720  -0.96097
 Alpha  occ. eigenvalues --   -0.90284  -0.88852  -0.87469  -0.82127  -0.80168
 Alpha  occ. eigenvalues --   -0.75451  -0.71589  -0.70792  -0.68597  -0.67703
 Alpha  occ. eigenvalues --   -0.67026  -0.61146  -0.59629  -0.58828  -0.57566
 Alpha  occ. eigenvalues --   -0.55032  -0.54412  -0.50547  -0.48208  -0.47920
 Alpha  occ. eigenvalues --   -0.47539  -0.46647  -0.46438  -0.45980  -0.45474
 Alpha  occ. eigenvalues --   -0.44787  -0.44095  -0.43867  -0.43363  -0.42994
 Alpha  occ. eigenvalues --   -0.42472  -0.42141  -0.41519  -0.39547  -0.39327
 Alpha  occ. eigenvalues --   -0.39164  -0.37625  -0.37134  -0.36661  -0.36498
 Alpha  occ. eigenvalues --   -0.35389  -0.34307  -0.33159  -0.32352  -0.31938
 Alpha  occ. eigenvalues --   -0.30881  -0.28086  -0.26426  -0.25518  -0.25311
 Alpha  occ. eigenvalues --   -0.24872  -0.22294  -0.21763  -0.20981  -0.19655
 Alpha virt. eigenvalues --   -0.04936  -0.01836  -0.00864   0.00217   0.02925
 Alpha virt. eigenvalues --    0.04953   0.06361   0.08012   0.08352   0.08848
 Alpha virt. eigenvalues --    0.10396   0.10610   0.11957   0.12347   0.12891
 Alpha virt. eigenvalues --    0.12966   0.14038   0.14413   0.14809   0.15408
 Alpha virt. eigenvalues --    0.15670   0.16504   0.17540   0.18385   0.19788
 Alpha virt. eigenvalues --    0.19868   0.20734   0.22091   0.22690   0.23142
 Alpha virt. eigenvalues --    0.23740   0.24440   0.25331   0.26378   0.28101
 Alpha virt. eigenvalues --    0.29254   0.29764   0.31244   0.32772   0.34703
 Alpha virt. eigenvalues --    0.35021   0.35433   0.37023   0.37283   0.38061
 Alpha virt. eigenvalues --    0.38808   0.42069   0.43685   0.45537   0.46282
 Alpha virt. eigenvalues --    0.47744   0.48495   0.49121   0.50150   0.52425
 Alpha virt. eigenvalues --    0.53353   0.53763   0.54828   0.56352   0.56438
 Alpha virt. eigenvalues --    0.57279   0.57569   0.58595   0.58875   0.59111
 Alpha virt. eigenvalues --    0.60220   0.60931   0.61584   0.62474   0.63504
 Alpha virt. eigenvalues --    0.64116   0.64712   0.65060   0.65557   0.65944
 Alpha virt. eigenvalues --    0.68862   0.69758   0.70591   0.72189   0.72811
 Alpha virt. eigenvalues --    0.73275   0.74178   0.74881   0.75960   0.76600
 Alpha virt. eigenvalues --    0.77055   0.77775   0.78828   0.80150   0.80688
 Alpha virt. eigenvalues --    0.80889   0.81594   0.82198   0.84305   0.84756
 Alpha virt. eigenvalues --    0.84849   0.85167   0.85859   0.86102   0.86866
 Alpha virt. eigenvalues --    0.87150   0.87263   0.88453   0.89083   0.90188
 Alpha virt. eigenvalues --    0.90587   0.90942   0.91626   0.92233   0.92479
 Alpha virt. eigenvalues --    0.92925   0.93616   0.94514   0.95060   0.96253
 Alpha virt. eigenvalues --    0.97938   0.98067   0.98131   0.98648   1.00663
 Alpha virt. eigenvalues --    1.00774   1.01435   1.01985   1.02638   1.04727
 Alpha virt. eigenvalues --    1.05966   1.06789   1.08927   1.10688   1.10996
 Alpha virt. eigenvalues --    1.11850   1.13095   1.14166   1.17200   1.18021
 Alpha virt. eigenvalues --    1.18998   1.20694   1.23699   1.24268   1.29016
 Alpha virt. eigenvalues --    1.30009   1.30619   1.31764   1.32683   1.34050
 Alpha virt. eigenvalues --    1.36561   1.37911   1.39375   1.40921   1.40966
 Alpha virt. eigenvalues --    1.42112   1.44246   1.45676   1.46114   1.48207
 Alpha virt. eigenvalues --    1.50314   1.53941   1.54861   1.55369   1.57507
 Alpha virt. eigenvalues --    1.59674   1.60122   1.62317   1.64138   1.65685
 Alpha virt. eigenvalues --    1.66775   1.67175   1.68175   1.69074   1.70931
 Alpha virt. eigenvalues --    1.71321   1.72602   1.74238   1.74790   1.76078
 Alpha virt. eigenvalues --    1.77350   1.78924   1.79045   1.79992   1.80985
 Alpha virt. eigenvalues --    1.81230   1.82698   1.85156   1.86860   1.87828
 Alpha virt. eigenvalues --    1.88588   1.89537   1.90027   1.92136   1.92906
 Alpha virt. eigenvalues --    1.94338   1.96344   1.97385   1.99372   1.99838
 Alpha virt. eigenvalues --    2.00993   2.02076   2.02589   2.03426   2.03926
 Alpha virt. eigenvalues --    2.08414   2.08874   2.10104   2.10501   2.11104
 Alpha virt. eigenvalues --    2.15617   2.16395   2.17501   2.19058   2.19378
 Alpha virt. eigenvalues --    2.19654   2.21174   2.21738   2.22038   2.22810
 Alpha virt. eigenvalues --    2.23180   2.24136   2.25666   2.25932   2.27003
 Alpha virt. eigenvalues --    2.28190   2.30953   2.31669   2.35741   2.37793
 Alpha virt. eigenvalues --    2.40292   2.42061   2.42502   2.47091   2.47737
 Alpha virt. eigenvalues --    2.53315   2.54463   2.56807   2.58571   2.59170
 Alpha virt. eigenvalues --    2.60117   2.61882   2.64013   2.65834   2.66230
 Alpha virt. eigenvalues --    2.70256   2.72174   2.73233   2.74519   2.79023
 Alpha virt. eigenvalues --    2.80563   2.84401   2.89397   2.93073   2.97233
 Alpha virt. eigenvalues --    2.97731   2.99829   3.00444   3.05890   3.20164
 Alpha virt. eigenvalues --    3.22753   3.39357   3.76553   3.89019   3.91773
 Alpha virt. eigenvalues --    3.93806   3.96897   3.99543   4.09275   4.12817
 Alpha virt. eigenvalues --    4.15764   4.19006   4.21558   4.22726   4.25814
 Alpha virt. eigenvalues --    4.26577   4.28360   4.35277   4.42039   4.51439
 Alpha virt. eigenvalues --    4.51776   4.57483   4.63147
          Condensed to atoms (all electrons):
               1          2          3          4          5          6
     1  C    4.171200  -0.019377  -0.029631   0.255947   0.000733   0.002032
     2  C   -0.019377   5.053375   0.592465  -0.031709   0.356759  -0.031850
     3  C   -0.029631   0.592465   4.731403   0.316479  -0.038360   0.365708
     4  N    0.255947  -0.031709   0.316479   7.054065   0.003563  -0.044920
     5  H    0.000733   0.356759  -0.038360   0.003563   0.552156  -0.003907
     6  H    0.002032  -0.031850   0.365708  -0.044920  -0.003907   0.535364
     7  O    0.594056   0.000717   0.002293  -0.096843   0.000005  -0.000112
     8  N    0.306787  -0.050413  -0.019598  -0.101886   0.004084  -0.000309
     9  C   -0.021310   0.442851  -0.023942  -0.018912  -0.027080   0.003160
    10  N    0.001522  -0.080458   0.004661   0.000235  -0.005250  -0.000138
    11  H   -0.000125   0.002633  -0.000022   0.000008  -0.000077   0.000001
    12  H   -0.000073  -0.004409   0.000347   0.000022   0.004232  -0.000006
    13  H   -0.008187   0.003762  -0.025964   0.292158  -0.000106  -0.005745
    14  C   -0.000000  -0.000000   0.000000  -0.000000  -0.000000  -0.000000
    15  H    0.000000  -0.000001  -0.000000   0.000000  -0.000000   0.000000
    16  C    0.000000  -0.000000   0.000000   0.000000   0.000000  -0.000000
    17  C    0.000000  -0.000000   0.000000  -0.000000   0.000000  -0.000000
    18  H    0.000000  -0.000000  -0.000000   0.000000  -0.000000   0.000000
    19  H   -0.000000  -0.000000  -0.000000  -0.000000  -0.000000   0.000000
    20  C   -0.000000   0.000000  -0.000000  -0.000000   0.000000   0.000000
    21  O   -0.000014  -0.000013   0.000000  -0.000000   0.000000  -0.000000
    22  O   -0.000000  -0.000000   0.000000  -0.000000   0.000000  -0.000000
    23  H    0.000000  -0.000000  -0.000000  -0.000000   0.000000   0.000000
    24  C    0.000000  -0.000000   0.000000   0.000000   0.000000  -0.000000
    25  O    0.000000   0.000000   0.000000   0.000000  -0.000000   0.000000
    26  N   -0.000000   0.000000   0.000000  -0.000000  -0.000000  -0.000000
    27  H    0.000000  -0.000000   0.000000  -0.000000   0.000000  -0.000000
    28  H   -0.000000   0.000000  -0.000000  -0.000000  -0.000000   0.000000
    29  H    0.000000  -0.000000  -0.000000  -0.000000  -0.000000   0.000000
    30  H   -0.000000   0.000000   0.000000  -0.000000  -0.000000  -0.000000
    31  S    0.000055   0.000006   0.000001   0.000008  -0.000000   0.000000
    32  C    0.000001  -0.000000  -0.000000  -0.000000   0.000000   0.000000
    33  H   -0.000000   0.000000  -0.000000  -0.000000   0.000000  -0.000000
    34  H   -0.000001  -0.000000  -0.000000  -0.000000   0.000000  -0.000000
    35  H    0.000000   0.000000   0.000000   0.000000  -0.000000   0.000000
    36  C   -0.011247   0.000787   0.000039   0.000455  -0.000012   0.000001
    37  H   -0.000667  -0.000064   0.000001  -0.000079   0.000001  -0.000000
    38  H    0.000912  -0.000069  -0.000032   0.000343   0.000001   0.000000
    39  H    0.001365  -0.000034  -0.000013   0.000002   0.000002   0.000000
    40  C   -0.000016   0.000000  -0.000000  -0.000000   0.000000  -0.000000
    41  H    0.000002  -0.000000  -0.000000  -0.000000   0.000000   0.000000
    42  H    0.000000   0.000000   0.000000   0.000000  -0.000000   0.000000
    43  H   -0.000012  -0.000000  -0.000000  -0.000000   0.000000  -0.000000
               7          8          9         10         11         12
     1  C    0.594056   0.306787  -0.021310   0.001522  -0.000125  -0.000073
     2  C    0.000717  -0.050413   0.442851  -0.080458   0.002633  -0.004409
     3  C    0.002293  -0.019598  -0.023942   0.004661  -0.000022   0.000347
     4  N   -0.096843  -0.101886  -0.018912   0.000235   0.000008   0.000022
     5  H    0.000005   0.004084  -0.027080  -0.005250  -0.000077   0.004232
     6  H   -0.000112  -0.000309   0.003160  -0.000138   0.000001  -0.000006
     7  O    8.105974  -0.088208   0.000052  -0.000054  -0.000008   0.000001
     8  N   -0.088208   7.215149   0.409340  -0.076875   0.000054   0.004130
     9  C    0.000052   0.409340   4.290034   0.377232  -0.000471  -0.030671
    10  N   -0.000054  -0.076875   0.377232   7.202415   0.129321   0.312034
    11  H   -0.000008   0.000054  -0.000471   0.129321   0.325378  -0.009720
    12  H    0.000001   0.004130  -0.030671   0.312034  -0.009720   0.385688
    13  H    0.009534   0.005932   0.000446   0.000017  -0.000000  -0.000001
    14  C    0.000000  -0.000001   0.000011  -0.000393  -0.000317   0.000167
    15  H    0.000000  -0.000001   0.000031   0.000652   0.000526   0.000038
    16  C    0.000000   0.000000   0.000000  -0.000002   0.000148  -0.000001
    17  C   -0.000000  -0.000003  -0.000012   0.002604  -0.006928  -0.000117
    18  H    0.000000  -0.000000   0.000000   0.000000  -0.000001   0.000000
    19  H    0.000000  -0.000000   0.000000   0.000001  -0.000009   0.000000
    20  C   -0.000000  -0.000000  -0.000000   0.000000  -0.000008  -0.000000
    21  O   -0.000000   0.000235   0.000520  -0.068172   0.127237   0.001346
    22  O    0.000000  -0.000000   0.000001  -0.000045   0.001143   0.000001
    23  H    0.000000  -0.000000   0.000000   0.000000  -0.000001   0.000000
    24  C    0.000000  -0.000000   0.000000  -0.000000   0.000000   0.000000
    25  O    0.000000   0.000000  -0.000000   0.000000  -0.000000   0.000000
    26  N   -0.000000   0.000000  -0.000000  -0.000000   0.000000  -0.000000
    27  H    0.000000   0.000000   0.000000   0.000000  -0.000000   0.000000
    28  H   -0.000000  -0.000000  -0.000000   0.000000  -0.000000  -0.000000
    29  H    0.000000  -0.000000   0.000014   0.000014   0.000226   0.000114
    30  H   -0.000000   0.000000   0.000000  -0.000000   0.000000   0.000000
    31  S    0.000041   0.006972   0.000006  -0.000050   0.000162   0.000000
    32  C    0.000000  -0.000041   0.000000   0.000001  -0.000025  -0.000000
    33  H   -0.000000  -0.000002  -0.000000   0.000001  -0.000019  -0.000000
    34  H   -0.000001  -0.000047   0.000000   0.000000  -0.000006  -0.000000
    35  H    0.000000   0.000000  -0.000000   0.000000  -0.000000   0.000000
    36  C   -0.010969   0.049626  -0.002523  -0.003950   0.005257   0.000015
    37  H    0.000118  -0.015174  -0.000090   0.000390  -0.000257  -0.000004
    38  H    0.021410  -0.025078   0.000853   0.000110  -0.000048   0.000001
    39  H    0.000497  -0.015624  -0.001404   0.006279  -0.008449   0.000027
    40  C   -0.000037  -0.000034  -0.000000   0.000000  -0.000000  -0.000000
    41  H    0.000036  -0.000008  -0.000000   0.000000  -0.000000   0.000000
    42  H    0.000000   0.000001   0.000000  -0.000000   0.000000   0.000000
    43  H   -0.000004  -0.000051   0.000000   0.000000  -0.000000  -0.000000
              13         14         15         16         17         18
     1  C   -0.008187  -0.000000   0.000000   0.000000   0.000000   0.000000
     2  C    0.003762  -0.000000  -0.000001  -0.000000  -0.000000  -0.000000
     3  C   -0.025964   0.000000  -0.000000   0.000000   0.000000  -0.000000
     4  N    0.292158  -0.000000   0.000000   0.000000  -0.000000   0.000000
     5  H   -0.000106  -0.000000  -0.000000   0.000000   0.000000  -0.000000
     6  H   -0.005745  -0.000000   0.000000  -0.000000  -0.000000   0.000000
     7  O    0.009534   0.000000   0.000000   0.000000  -0.000000   0.000000
     8  N    0.005932  -0.000001  -0.000001   0.000000  -0.000003  -0.000000
     9  C    0.000446   0.000011   0.000031   0.000000  -0.000012   0.000000
    10  N    0.000017  -0.000393   0.000652  -0.000002   0.002604   0.000000
    11  H   -0.000000  -0.000317   0.000526   0.000148  -0.006928  -0.000001
    12  H   -0.000001   0.000167   0.000038  -0.000001  -0.000117   0.000000
    13  H    0.376339   0.000000   0.000000   0.000000   0.000000   0.000000
    14  C    0.000000   5.346209   0.351172   0.316718   0.307217  -0.040473
    15  H    0.000000   0.351172   0.607268  -0.039118  -0.022181   0.005487
    16  C    0.000000   0.316718  -0.039118   5.093225  -0.025315   0.372921
    17  C    0.000000   0.307217  -0.022181  -0.025315   4.297134  -0.001319
    18  H    0.000000  -0.040473   0.005487   0.372921  -0.001319   0.589736
    19  H   -0.000000  -0.038355  -0.003840   0.371332  -0.001822  -0.031344
    20  C    0.000000  -0.028301  -0.003165   0.308758   0.003270  -0.042627
    21  O    0.000000  -0.102683   0.000759   0.003861   0.373205   0.000057
    22  O   -0.000000  -0.108150   0.000788   0.009729   0.494791   0.003042
    23  H    0.000000  -0.008229   0.005746  -0.036674  -0.000090   0.006269
    24  C    0.000000   0.002873   0.000043  -0.035284   0.000016  -0.003898
    25  O    0.000000  -0.000034  -0.000000   0.000350   0.000000   0.000392
    26  N   -0.000000  -0.003111  -0.000114  -0.045351   0.000057  -0.005035
    27  H    0.000000  -0.000774   0.000109  -0.006115  -0.000085   0.007028
    28  H    0.000000   0.000101  -0.000026   0.005826   0.000004   0.000020
    29  H   -0.000000   0.356757  -0.032823  -0.032413  -0.025259  -0.004744
    30  H    0.000000  -0.000401   0.000009   0.002882  -0.000006   0.000812
    31  S   -0.000001   0.000091  -0.000014  -0.000004   0.001100  -0.000000
    32  C    0.000000  -0.000240   0.000004   0.000009  -0.001328   0.000001
    33  H    0.000000   0.001396  -0.000019  -0.000061   0.002282  -0.000008
    34  H    0.000000   0.000004  -0.000000  -0.000000   0.000084  -0.000000
    35  H   -0.000000   0.000001  -0.000000  -0.000000   0.000060  -0.000000
    36  C   -0.000015  -0.000247   0.000023   0.000003  -0.000461   0.000000
    37  H    0.000003   0.000007   0.000001  -0.000000   0.000018   0.000000
    38  H   -0.000005   0.000000  -0.000000  -0.000000   0.000013  -0.000000
    39  H    0.000000   0.001162  -0.000081  -0.000027   0.001763  -0.000000
    40  C    0.000000   0.000000  -0.000000  -0.000000   0.000002  -0.000000
    41  H    0.000000   0.000000  -0.000000  -0.000000   0.000000  -0.000000
    42  H   -0.000000   0.000000  -0.000000  -0.000000   0.000000  -0.000000
    43  H    0.000000   0.000000  -0.000000  -0.000000   0.000000  -0.000000
              19         20         21         22         23         24
     1  C   -0.000000  -0.000000  -0.000014  -0.000000   0.000000   0.000000
     2  C   -0.000000   0.000000  -0.000013  -0.000000  -0.000000  -0.000000
     3  C   -0.000000  -0.000000   0.000000   0.000000  -0.000000   0.000000
     4  N   -0.000000  -0.000000  -0.000000  -0.000000  -0.000000   0.000000
     5  H   -0.000000   0.000000   0.000000   0.000000   0.000000   0.000000
     6  H    0.000000   0.000000  -0.000000  -0.000000   0.000000  -0.000000
     7  O    0.000000  -0.000000  -0.000000   0.000000   0.000000   0.000000
     8  N   -0.000000  -0.000000   0.000235  -0.000000  -0.000000  -0.000000
     9  C    0.000000  -0.000000   0.000520   0.000001   0.000000   0.000000
    10  N    0.000001   0.000000  -0.068172  -0.000045   0.000000  -0.000000
    11  H   -0.000009  -0.000008   0.127237   0.001143  -0.000001   0.000000
    12  H    0.000000  -0.000000   0.001346   0.000001   0.000000   0.000000
    13  H   -0.000000   0.000000   0.000000  -0.000000   0.000000   0.000000
    14  C   -0.038355  -0.028301  -0.102683  -0.108150  -0.008229   0.002873
    15  H   -0.003840  -0.003165   0.000759   0.000788   0.005746   0.000043
    16  C    0.371332   0.308758   0.003861   0.009729  -0.036674  -0.035284
    17  C   -0.001822   0.003270   0.373205   0.494791  -0.000090   0.000016
    18  H   -0.031344  -0.042627   0.000057   0.003042   0.006269  -0.003898
    19  H    0.569216  -0.040001   0.000148   0.008869  -0.001682  -0.002116
    20  C   -0.040001   5.198966  -0.000029   0.000723   0.346782   0.278576
    21  O    0.000148  -0.000029   8.334630  -0.077169  -0.000002   0.000000
    22  O    0.008869   0.000723  -0.077169   8.185212   0.000004  -0.000004
    23  H   -0.001682   0.346782  -0.000002   0.000004   0.625757  -0.049031
    24  C   -0.002116   0.278576   0.000000  -0.000004  -0.049031   4.729071
    25  O    0.000077  -0.078341  -0.000000  -0.000000   0.000656   0.570710
    26  N    0.003937   0.322993  -0.000001  -0.000004  -0.045858  -0.045032
    27  H    0.000012  -0.048392   0.000000  -0.000000   0.007561  -0.001379
    28  H   -0.000184  -0.053225  -0.000000   0.000000  -0.000482  -0.000984
    29  H    0.005155  -0.005417   0.004171   0.001439  -0.000508   0.000202
    30  H    0.005575  -0.108790  -0.000000  -0.000003   0.007202   0.315443
    31  S    0.000001  -0.000000   0.000257   0.004639   0.000000   0.000000
    32  C    0.000004   0.000000   0.000642  -0.029264   0.000000  -0.000000
    33  H   -0.000026  -0.000000   0.000056   0.063342  -0.000000   0.000000
    34  H   -0.000000  -0.000000   0.000019   0.000269   0.000000   0.000000
    35  H   -0.000000  -0.000000   0.000043   0.000266   0.000000  -0.000000
    36  C   -0.000000  -0.000000  -0.035380   0.000106  -0.000000   0.000000
    37  H   -0.000000   0.000000   0.000156   0.000002   0.000000  -0.000000
    38  H   -0.000000   0.000000   0.000477  -0.000001  -0.000000  -0.000000
    39  H    0.000000   0.000000   0.066016  -0.000993   0.000000  -0.000000
    40  C    0.000000  -0.000000   0.000001   0.000003   0.000000  -0.000000
    41  H   -0.000000  -0.000000   0.000000   0.000000  -0.000000   0.000000
    42  H   -0.000000   0.000000   0.000000   0.000000  -0.000000  -0.000000
    43  H    0.000000  -0.000000  -0.000000   0.000000   0.000000   0.000000
              25         26         27         28         29         30
     1  C    0.000000  -0.000000   0.000000  -0.000000   0.000000  -0.000000
     2  C    0.000000   0.000000  -0.000000   0.000000  -0.000000   0.000000
     3  C    0.000000   0.000000   0.000000  -0.000000  -0.000000   0.000000
     4  N    0.000000  -0.000000  -0.000000  -0.000000  -0.000000  -0.000000
     5  H   -0.000000  -0.000000   0.000000  -0.000000  -0.000000  -0.000000
     6  H    0.000000  -0.000000  -0.000000   0.000000   0.000000  -0.000000
     7  O    0.000000  -0.000000   0.000000  -0.000000   0.000000  -0.000000
     8  N    0.000000   0.000000   0.000000  -0.000000  -0.000000   0.000000
     9  C   -0.000000  -0.000000   0.000000  -0.000000   0.000014   0.000000
    10  N    0.000000  -0.000000   0.000000   0.000000   0.000014  -0.000000
    11  H   -0.000000   0.000000  -0.000000  -0.000000   0.000226   0.000000
    12  H    0.000000  -0.000000   0.000000  -0.000000   0.000114   0.000000
    13  H    0.000000  -0.000000   0.000000   0.000000  -0.000000   0.000000
    14  C   -0.000034  -0.003111  -0.000774   0.000101   0.356757  -0.000401
    15  H   -0.000000  -0.000114   0.000109  -0.000026  -0.032823   0.000009
    16  C    0.000350  -0.045351  -0.006115   0.005826  -0.032413   0.002882
    17  C    0.000000   0.000057  -0.000085   0.000004  -0.025259  -0.000006
    18  H    0.000392  -0.005035   0.007028   0.000020  -0.004744   0.000812
    19  H    0.000077   0.003937   0.000012  -0.000184   0.005155   0.005575
    20  C   -0.078341   0.322993  -0.048392  -0.053225  -0.005417  -0.108790
    21  O   -0.000000  -0.000001   0.000000  -0.000000   0.004171  -0.000000
    22  O   -0.000000  -0.000004  -0.000000   0.000000   0.001439  -0.000003
    23  H    0.000656  -0.045858   0.007561  -0.000482  -0.000508   0.007202
    24  C    0.570710  -0.045032  -0.001379  -0.000984   0.000202   0.315443
    25  O    7.960077  -0.008553   0.002756   0.013618   0.000001  -0.062438
    26  N   -0.008553   6.897244   0.309590   0.310963   0.008037   0.005925
    27  H    0.002756   0.309590   0.464719  -0.031931  -0.000139   0.000245
    28  H    0.013618   0.310963  -0.031931   0.451404  -0.000148   0.001019
    29  H    0.000001   0.008037  -0.000139  -0.000148   0.568752  -0.000014
    30  H   -0.062438   0.005925   0.000245   0.001019  -0.000014   0.733981
    31  S    0.000000   0.000000   0.000000  -0.000000   0.000001   0.000000
    32  C   -0.000000  -0.000000   0.000000   0.000000   0.000004  -0.000000
    33  H    0.000000   0.000000  -0.000000  -0.000000  -0.000030   0.000000
    34  H    0.000000   0.000000   0.000000  -0.000000  -0.000000   0.000000
    35  H    0.000000   0.000000  -0.000000  -0.000000  -0.000000   0.000000
    36  C   -0.000000  -0.000000   0.000000  -0.000000   0.000001  -0.000000
    37  H    0.000000  -0.000000  -0.000000   0.000000  -0.000000   0.000000
    38  H    0.000000   0.000000  -0.000000   0.000000  -0.000000   0.000000
    39  H    0.000000   0.000000  -0.000000   0.000000  -0.000013   0.000000
    40  C    0.000000  -0.000000   0.000000   0.000000   0.000000  -0.000000
    41  H    0.000000   0.000000  -0.000000  -0.000000  -0.000000   0.000000
    42  H    0.000000   0.000000  -0.000000   0.000000  -0.000000   0.000000
    43  H    0.000000   0.000000   0.000000  -0.000000   0.000000  -0.000000
              31         32         33         34         35         36
     1  C    0.000055   0.000001  -0.000000  -0.000001   0.000000  -0.011247
     2  C    0.000006  -0.000000   0.000000  -0.000000   0.000000   0.000787
     3  C    0.000001  -0.000000  -0.000000  -0.000000   0.000000   0.000039
     4  N    0.000008  -0.000000  -0.000000  -0.000000   0.000000   0.000455
     5  H   -0.000000   0.000000   0.000000   0.000000  -0.000000  -0.000012
     6  H    0.000000   0.000000  -0.000000  -0.000000   0.000000   0.000001
     7  O    0.000041   0.000000  -0.000000  -0.000001   0.000000  -0.010969
     8  N    0.006972  -0.000041  -0.000002  -0.000047   0.000000   0.049626
     9  C    0.000006   0.000000  -0.000000   0.000000  -0.000000  -0.002523
    10  N   -0.000050   0.000001   0.000001   0.000000   0.000000  -0.003950
    11  H    0.000162  -0.000025  -0.000019  -0.000006  -0.000000   0.005257
    12  H    0.000000  -0.000000  -0.000000  -0.000000   0.000000   0.000015
    13  H   -0.000001   0.000000   0.000000   0.000000  -0.000000  -0.000015
    14  C    0.000091  -0.000240   0.001396   0.000004   0.000001  -0.000247
    15  H   -0.000014   0.000004  -0.000019  -0.000000  -0.000000   0.000023
    16  C   -0.000004   0.000009  -0.000061  -0.000000  -0.000000   0.000003
    17  C    0.001100  -0.001328   0.002282   0.000084   0.000060  -0.000461
    18  H   -0.000000   0.000001  -0.000008  -0.000000  -0.000000   0.000000
    19  H    0.000001   0.000004  -0.000026  -0.000000  -0.000000  -0.000000
    20  C   -0.000000   0.000000  -0.000000  -0.000000  -0.000000  -0.000000
    21  O    0.000257   0.000642   0.000056   0.000019   0.000043  -0.035380
    22  O    0.004639  -0.029264   0.063342   0.000269   0.000266   0.000106
    23  H    0.000000   0.000000  -0.000000   0.000000   0.000000  -0.000000
    24  C    0.000000  -0.000000   0.000000   0.000000  -0.000000   0.000000
    25  O    0.000000  -0.000000   0.000000   0.000000   0.000000  -0.000000
    26  N    0.000000  -0.000000   0.000000   0.000000   0.000000  -0.000000
    27  H    0.000000   0.000000  -0.000000   0.000000  -0.000000   0.000000
    28  H   -0.000000   0.000000  -0.000000  -0.000000  -0.000000  -0.000000
    29  H    0.000001   0.000004  -0.000030  -0.000000  -0.000000   0.000001
    30  H    0.000000  -0.000000   0.000000   0.000000   0.000000  -0.000000
    31  S   15.471849   0.249844  -0.023469  -0.046939  -0.039007   0.082894
    32  C    0.249844   5.429981   0.291299   0.361583   0.356707  -0.008077
    33  H   -0.023469   0.291299   0.397942  -0.012960  -0.011415  -0.001874
    34  H   -0.046939   0.361583  -0.012960   0.551259  -0.032320  -0.000991
    35  H   -0.039007   0.356707  -0.011415  -0.032320   0.548706   0.000537
    36  C    0.082894  -0.008077  -0.001874  -0.000991   0.000537   5.363219
    37  H   -0.027277   0.000723   0.000050   0.000090  -0.000023   0.376431
    38  H   -0.030484  -0.000064   0.000039   0.001099  -0.000051   0.353144
    39  H   -0.028295  -0.000558   0.002424   0.000637   0.000073   0.282878
    40  C    0.243071  -0.029710   0.001993  -0.003672  -0.002485  -0.008599
    41  H   -0.032230   0.002573  -0.000038   0.000011  -0.000024  -0.000150
    42  H   -0.035232  -0.002129   0.000003  -0.000726   0.003711   0.000676
    43  H   -0.043331  -0.002902   0.000009   0.005901  -0.000743  -0.002264
              37         38         39         40         41         42
     1  C   -0.000667   0.000912   0.001365  -0.000016   0.000002   0.000000
     2  C   -0.000064  -0.000069  -0.000034   0.000000  -0.000000   0.000000
     3  C    0.000001  -0.000032  -0.000013  -0.000000  -0.000000   0.000000
     4  N   -0.000079   0.000343   0.000002  -0.000000  -0.000000   0.000000
     5  H    0.000001   0.000001   0.000002   0.000000   0.000000  -0.000000
     6  H   -0.000000   0.000000   0.000000  -0.000000   0.000000   0.000000
     7  O    0.000118   0.021410   0.000497  -0.000037   0.000036   0.000000
     8  N   -0.015174  -0.025078  -0.015624  -0.000034  -0.000008   0.000001
     9  C   -0.000090   0.000853  -0.001404  -0.000000  -0.000000   0.000000
    10  N    0.000390   0.000110   0.006279   0.000000   0.000000  -0.000000
    11  H   -0.000257  -0.000048  -0.008449  -0.000000  -0.000000   0.000000
    12  H   -0.000004   0.000001   0.000027  -0.000000   0.000000   0.000000
    13  H    0.000003  -0.000005   0.000000   0.000000   0.000000  -0.000000
    14  C    0.000007   0.000000   0.001162   0.000000   0.000000   0.000000
    15  H    0.000001  -0.000000  -0.000081  -0.000000  -0.000000  -0.000000
    16  C   -0.000000  -0.000000  -0.000027  -0.000000  -0.000000  -0.000000
    17  C    0.000018   0.000013   0.001763   0.000002   0.000000   0.000000
    18  H    0.000000  -0.000000  -0.000000  -0.000000  -0.000000  -0.000000
    19  H   -0.000000  -0.000000   0.000000   0.000000  -0.000000  -0.000000
    20  C    0.000000   0.000000   0.000000  -0.000000  -0.000000   0.000000
    21  O    0.000156   0.000477   0.066016   0.000001   0.000000   0.000000
    22  O    0.000002  -0.000001  -0.000993   0.000003   0.000000   0.000000
    23  H    0.000000  -0.000000   0.000000   0.000000  -0.000000  -0.000000
    24  C   -0.000000  -0.000000  -0.000000  -0.000000   0.000000  -0.000000
    25  O    0.000000   0.000000   0.000000   0.000000   0.000000   0.000000
    26  N   -0.000000   0.000000   0.000000  -0.000000   0.000000   0.000000
    27  H   -0.000000  -0.000000  -0.000000   0.000000  -0.000000  -0.000000
    28  H    0.000000   0.000000   0.000000   0.000000  -0.000000   0.000000
    29  H   -0.000000  -0.000000  -0.000013   0.000000  -0.000000  -0.000000
    30  H    0.000000   0.000000   0.000000  -0.000000   0.000000   0.000000
    31  S   -0.027277  -0.030484  -0.028295   0.243071  -0.032230  -0.035232
    32  C    0.000723  -0.000064  -0.000558  -0.029710   0.002573  -0.002129
    33  H    0.000050   0.000039   0.002424   0.001993  -0.000038   0.000003
    34  H    0.000090   0.001099   0.000637  -0.003672   0.000011  -0.000726
    35  H   -0.000023  -0.000051   0.000073  -0.002485  -0.000024   0.003711
    36  C    0.376431   0.353144   0.282878  -0.008599  -0.000150   0.000676
    37  H    0.492610  -0.024797  -0.015048   0.000647   0.000257  -0.000037
    38  H   -0.024797   0.477464  -0.008616  -0.000374   0.000089  -0.000074
    39  H   -0.015048  -0.008616   0.420732   0.000619   0.000043  -0.000028
    40  C    0.000647  -0.000374   0.000619   5.287192   0.369957   0.366694
    41  H    0.000257   0.000089   0.000043   0.369957   0.507916  -0.023775
    42  H   -0.000037  -0.000074  -0.000028   0.366694  -0.023775   0.528047
    43  H    0.000112   0.004585   0.000142   0.366146  -0.023510  -0.031139
              43
     1  C   -0.000012
     2  C   -0.000000
     3  C   -0.000000
     4  N   -0.000000
     5  H    0.000000
     6  H   -0.000000
     7  O   -0.000004
     8  N   -0.000051
     9  C    0.000000
    10  N    0.000000
    11  H   -0.000000
    12  H   -0.000000
    13  H    0.000000
    14  C    0.000000
    15  H   -0.000000
    16  C   -0.000000
    17  C    0.000000
    18  H   -0.000000
    19  H    0.000000
    20  C   -0.000000
    21  O   -0.000000
    22  O    0.000000
    23  H    0.000000
    24  C    0.000000
    25  O    0.000000
    26  N    0.000000
    27  H    0.000000
    28  H   -0.000000
    29  H    0.000000
    30  H   -0.000000
    31  S   -0.043331
    32  C   -0.002902
    33  H    0.000009
    34  H    0.005901
    35  H   -0.000743
    36  C   -0.002264
    37  H    0.000112
    38  H    0.004585
    39  H    0.000142
    40  C    0.366146
    41  H   -0.023510
    42  H   -0.031139
    43  H    0.533218
 Mulliken charges:
               1
     1  C    0.756049
     2  C   -0.234957
     3  C    0.124168
     4  N   -0.628937
     5  H    0.153254
     6  H    0.180719
     7  O   -0.538499
     8  N   -0.608957
     9  C    0.601863
    10  N   -0.802105
    11  H    0.434399
    12  H    0.336839
    13  H    0.351830
    14  C   -0.352179
    15  H    0.128730
    16  C   -0.265396
    17  C    0.601301
    18  H    0.143686
    19  H    0.155052
    20  C   -0.051771
    21  O   -0.630375
    22  O   -0.558733
    23  H    0.142581
    24  C    0.240796
    25  O   -0.399269
    26  N   -0.705688
    27  H    0.296794
    28  H    0.304024
    29  H    0.156622
    30  H    0.098559
    31  S    0.245336
    32  C   -0.619037
    33  H    0.289086
    34  H    0.176707
    35  H    0.175964
    36  C   -0.429332
    37  H    0.211900
    38  H    0.229153
    39  H    0.294519
    40  C   -0.591396
    41  H    0.198850
    42  H    0.194009
    43  H    0.193841
 Sum of Mulliken charges =  -0.00000
 Mulliken charges with hydrogens summed into heavy atoms:
               1
     1  C    0.756049
     2  C   -0.081702
     3  C    0.304887
     4  N   -0.277106
     7  O   -0.538499
     8  N   -0.608957
     9  C    0.601863
    10  N   -0.030867
    14  C   -0.066827
    16  C    0.033341
    17  C    0.601301
    20  C    0.090810
    21  O   -0.630375
    22  O   -0.558733
    24  C    0.339355
    25  O   -0.399269
    26  N   -0.104870
    31  S    0.245336
    32  C    0.022720
    36  C    0.306240
    40  C   -0.004696
 APT charges:
               1
     1  C    1.160416
     2  C   -0.468521
     3  C    0.478549
     4  N   -0.689820
     5  H    0.031686
     6  H    0.048353
     7  O   -0.810181
     8  N   -1.149858
     9  C    1.082909
    10  N   -0.950309
    11  H    0.660668
    12  H    0.211313
    13  H    0.227784
    14  C   -0.005854
    15  H   -0.049035
    16  C    0.109985
    17  C    1.249320
    18  H   -0.038248
    19  H   -0.001138
    20  C    0.168112
    21  O   -1.227711
    22  O   -0.935033
    23  H   -0.043261
    24  C    0.699801
    25  O   -0.652332
    26  N   -0.453579
    27  H    0.130674
    28  H    0.140363
    29  H   -0.012840
    30  H   -0.096138
    31  S   -0.238267
    32  C   -0.051925
    33  H    0.231310
    34  H   -0.008001
    35  H   -0.010906
    36  C    1.088352
    37  H   -0.033517
    38  H   -0.005849
    39  H    0.163148
    40  C    0.027934
    41  H    0.023783
    42  H    0.000355
    43  H   -0.002494
 Sum of APT charges =   0.00000
 APT charges with hydrogens summed into heavy atoms:
               1
     1  C    1.160416
     2  C   -0.436835
     3  C    0.526902
     4  N   -0.462036
     7  O   -0.810181
     8  N   -1.149858
     9  C    1.082909
    10  N   -0.078328
    14  C   -0.067729
    16  C    0.070599
    17  C    1.249320
    20  C    0.124851
    21  O   -1.227711
    22  O   -0.935033
    24  C    0.603663
    25  O   -0.652332
    26  N   -0.182543
    31  S   -0.238267
    32  C    0.160479
    36  C    1.212134
    40  C    0.049579
 Electronic spatial extent (au):  <R**2>=          11843.9948
 Charge=              0.0000 electrons
 Dipole moment (field-independent basis, Debye):
    X=             -4.0935    Y=              7.0077    Z=              6.1298  Tot=             10.1705
 Quadrupole moment (field-independent basis, Debye-Ang):
   XX=           -104.2491   YY=           -129.8573   ZZ=           -141.2799
   XY=            -13.5169   XZ=              2.4641   YZ=             -9.9628
 Traceless Quadrupole moment (field-independent basis, Debye-Ang):
   XX=             20.8796   YY=             -4.7286   ZZ=            -16.1511
   XY=            -13.5169   XZ=              2.4641   YZ=             -9.9628
 Octapole moment (field-independent basis, Debye-Ang**2):
  XXX=            -12.2456  YYY=            174.3295  ZZZ=            102.4909  XYY=           -105.4784
  XXY=             90.0922  XXZ=             66.5382  XZZ=             16.0484  YZZ=            113.9922
  YYZ=            134.0224  XYZ=            -35.0205
[...]
 5,0.00004309,-0.00052209,0.02746093,-0.06599017,-0.33284315,-0.0015024
 4,-0.00397760,-0.00456386,0.00107214,0.00128032,0.00299797,-0.01754683
 ,0.05926368,0.33216204,-0.00014438,-0.00016259,-0.00032451,-0.00007230
 ,-0.00005044,-0.00004732,0.00003479,0.00001696,0.00003625,-0.00018650,
 0.00018165,0.00012117,-0.00003704,0.00001643,-0.00000543,-0.00000799,0
 .00000805,-0.00000741,-0.00016364,0.00008699,0.00002816,-0.00042401,0.
 00137669,0.00033959,0.00042070,0.00022145,0.00066802,0.00018460,-0.000
 34202,-0.00039431,-0.00033195,0.00025032,0.00024847,0.00000771,0.00002
 089,0.00002377,-0.00003910,0.00001549,-0.00001758,0.00008129,-0.000135
 21,0.00007396,0.00004998,0.00002256,0.00000085,-0.00001365,-0.00001344
 ,-0.00001730,-0.00132063,0.00151095,0.00015455,0.00000343,-0.00000875,
 -0.00002330,-0.00001500,-0.00002269,-0.00000248,-0.00001321,-0.0000076
 5,-0.00000880,0.00070979,-0.00111256,-0.00092360,0.00166861,-0.0001007
 8,0.00045380,0.00000761,0.00000438,-0.00000099,0.00000455,-0.00001809,
 -0.00001880,0.00000352,0.00001212,0.00002069,0.00002653,0.00000033,0.0
 0001433,-0.00000373,-0.00000185,-0.00000840,-0.00000647,0.00000737,0.0
 0000651,0.00003674,0.00000371,0.00003725,-0.00000050,-0.00000335,0.000
 00140,-0.07611549,-0.03477302,-0.03604478,0.00978801,0.00978013,0.0129
 8209,-0.00440649,-0.00203207,0.00295974,0.00006004,0.00026422,-0.00058
 114,0.00116982,0.00059880,0.00012008,-0.00105994,-0.00699092,-0.006004
 18,-0.00081226,0.00014510,-0.00064469,0.00161565,-0.00050340,0.0005030
 0,-0.00256508,0.00134112,0.00113416,0.52836103,0.00087545,0.00067524,0
 .00137145,0.00015824,0.00001292,0.00008414,0.00005547,0.00005396,0.000
 09869,-0.00008179,-0.00023071,-0.00036904,0.00007906,-0.00004671,0.000
 00042,0.00000364,-0.00001062,-0.00000458,-0.00063818,-0.00033096,-0.00
 047950,0.00148407,-0.00182288,-0.00009584,-0.00029362,-0.00051164,-0.0
 0085503,-0.00004674,0.00025252,0.00029585,0.00006681,-0.00009255,-0.00
 012253,-0.00000983,-0.00001699,-0.00001257,0.00009510,-0.00002039,0.00
 001763,0.00002090,0.00004984,0.00003951,0.00000625,-0.00000150,0.00000
 765,0.00002922,-0.00002180,0.00001407,0.00018893,-0.00076398,-0.000281
 94,-0.00000509,0.00000538,-0.00000033,-0.00000793,0.00000724,-0.000000
 91,-0.00001201,0.00002678,0.00000277,-0.00007736,0.00062284,0.00058657
 ,-0.00012727,0.00047321,-0.00005587,0.00000118,-0.00000405,-0.00000311
 ,0.00003583,-0.00005507,-0.00000064,-0.00001453,0.00003138,0.00002428,
 0.00000272,0.00002262,0.00001045,-0.00000115,-0.00000676,-0.00000831,-
 0.00000009,0.00000226,0.00000139,-0.00000056,0.00000983,-0.00000651,-0
 .00000620,0.00000825,-0.00000773,-0.03528153,-0.08063238,-0.04726890,0
 .00185612,0.00370255,0.00328260,-0.00113943,-0.00071511,0.00162836,0.0
 0081834,0.00145054,0.00148684,-0.00017211,-0.00043268,-0.00006467,-0.0
 0223857,0.00577610,0.00368259,0.00040170,-0.00058607,0.00014548,0.0014
 4436,0.00063320,0.00044190,0.00158374,-0.00148676,-0.00077018,-0.04896
 764,0.49951891,0.00038318,0.00060377,0.00100443,0.00014363,0.00000974,
 0.00011034,0.00004192,0.00003873,0.00008616,-0.00001872,-0.00018886,-0
 .00023164,0.00007325,-0.00004035,-0.00000376,0.00000671,-0.00000867,-0
 .00000198,-0.00024588,-0.00014832,-0.00061943,0.00136734,-0.00081310,0
 .00044717,-0.00015447,-0.00051524,-0.00075416,-0.00007960,0.00019298,0
 .00027861,0.00018468,-0.00010388,-0.00014912,-0.00001035,0.00000060,-0
 .00001483,0.00005092,-0.00001756,0.00002954,-0.00000632,0.00010680,-0.
 00013640,-0.00003597,-0.00000101,0.00000411,0.00000066,0.00001710,-0.0
 0002002,0.00048788,-0.00060503,-0.00021842,-0.00000742,0.00000648,0.00
 002520,0.00001048,-0.00000889,-0.00000624,-0.00000984,0.00001958,-0.00
 001009,-0.00039675,0.00034074,0.00055829,-0.00118586,-0.00049031,0.000
 15326,-0.00001083,-0.00000691,-0.00000147,0.00001418,-0.00003673,-0.00
 005188,-0.00000680,0.00002404,0.00005567,0.00000977,0.00000150,0.00002
 075,-0.00000259,0.00000211,-0.00000337,-0.00000037,0.00000230,0.000001
 10,-0.00002712,-0.00001510,-0.00001301,0.00000122,-0.00000485,0.000002
 07,-0.01290193,-0.02167490,-0.07654299,-0.01231920,-0.01674496,-0.0202
 5591,0.00561198,0.00284817,-0.00313131,-0.00181479,-0.00039417,0.00266
 927,-0.00069944,-0.00006604,0.00256115,-0.00484839,0.00079763,-0.00208
 664,-0.00004804,0.00008337,0.00019354,0.00110842,-0.00027613,0.0008249
 9,-0.00003851,-0.00000321,-0.00028584,-0.07105933,-0.08137542,0.468262
 12,-0.00022116,-0.00000767,-0.00021310,0.00001631,0.00001143,0.0000245
 1,-0.00002422,-0.00000917,-0.00003419,0.00010988,-0.00003801,0.0000416
 6,0.00000511,-0.00000109,0.00000091,0.00000546,-0.00000080,0.00000234,
 0.00016935,-0.00010347,0.00018495,0.00003628,0.00004871,0.00015257,-0.
 00008113,-0.00006834,-0.00015565,-0.00003838,0.00008464,0.00009532,0.0
 0009339,-0.00006499,-0.00004881,-0.00000426,-0.00000253,-0.00000635,-0
 .00000321,0.00001412,0.00000139,-0.00001148,0.00002343,-0.00002172,-0.
 00000851,-0.00000389,0.00000117,0.00000109,0.00000140,0.00000077,0.000
 24075,-0.00022630,-0.00000025,-0.00000110,0.00000184,0.00000509,0.0000
 0273,0.00000365,0.00000019,0.00000201,0.00000233,0.00000058,-0.0001476
 1,0.00018519,0.00014972,-0.00030428,-0.00001143,-0.00006056,-0.0000018
 8,-0.00000118,0.00000010,0.00000087,-0.00000213,-0.00000030,-0.0000012
 4,0.00000131,0.00000094,-0.00000436,0.00000153,-0.00000069,0.00000042,
 -0.00000019,0.00000087,0.00000126,-0.00000122,-0.00000115,-0.00000678,
 -0.00000214,-0.00000675,-0.00000005,0.00000071,-0.00000050,0.00792748,
 0.00134996,-0.01351870,-0.00260211,-0.00272586,-0.00260111,0.00136018,
 0.00039224,-0.00098262,-0.00024368,0.00004885,0.00023318,0.00013829,-0
 .00023917,-0.00007153,0.00034942,0.00001494,0.00032702,-0.00012598,-0.
 00005695,-0.00003723,-0.00002914,0.00014949,-0.00010164,0.00012279,-0.
 00009716,-0.00013155,-0.12543856,-0.00608853,0.12558663,0.13256538,0.0
 0028912,0.00007470,0.00029991,-0.00002503,-0.00000734,-0.00002268,0.00
 002962,0.00001641,0.00004211,-0.00015609,0.00004635,-0.00006201,-0.000
 00355,0.00000087,-0.00000318,-0.00000725,0.00000239,-0.00000319,-0.000
 27823,0.00003603,-0.00027192,-0.00010773,-0.00007499,-0.00018559,0.000
 06720,0.00004932,0.00009738,-0.00002548,-0.00004429,-0.00003915,0.0000
 2077,-0.00000487,-0.00000943,0.00000495,0.00000568,0.00000116,0.000014
 38,-0.00000905,0.00000149,-0.00002516,0.00001056,-0.00002543,-0.000010
 62,-0.00000332,-0.00000262,-0.00000607,0.00000877,0.00000027,0.0001897
 9,-0.00004587,0.00006392,0.00000113,-0.00000041,0.00000394,0.00000589,
 0.00000318,0.00000205,0.00000740,-0.00000586,-0.00000121,-0.00009104,0
 .00002372,-0.00002468,-0.00026667,-0.00012079,-0.00007851,-0.00000222,
 0.00000052,0.00000172,-0.00001503,0.00002585,0.00000165,0.00000520,-0.
 00001509,-0.00001137,-0.00000536,-0.00001106,-0.00000586,0.00000067,0.
 00000371,0.00000482,0.00000078,-0.00000146,-0.00000200,-0.00000712,-0.
 00000421,-0.00000452,0.00000284,-0.00000319,0.00000342,0.00889508,0.00
 051243,-0.01381658,-0.00282377,-0.00315343,-0.00252598,0.00117379,0.00
 096996,-0.00091583,-0.00018491,0.00020888,-0.00006046,-0.00016461,-0.0
 0007978,0.00038919,0.00021815,-0.00000959,0.00014314,-0.00007824,0.000
 11528,-0.00002285,-0.00010888,-0.00003430,0.00021885,0.00005123,-0.000
 11800,-0.00003505,-0.00536819,-0.04828670,0.01223576,0.00941072,0.0482
 3480,-0.00036009,-0.00010533,-0.00044534,-0.00000230,0.00002642,0.0000
 3310,-0.00004399,-0.00002602,-0.00006938,0.00016645,-0.00002357,0.0001
 0134,-0.00000165,0.00000286,0.00000147,0.00000691,0.00000052,0.0000040
 4,0.00030680,-0.00008079,0.00031929,-0.00009266,0.00021827,0.00018001,
 -0.00007326,-0.00005056,-0.00013838,-0.00007130,0.00011508,0.00011926,
 0.00016129,-0.00010575,-0.00007002,-0.00000346,-0.00000192,-0.00000760
 ,-0.00001342,0.00001618,-0.00000413,-0.00003798,0.00003881,-0.00003448
 ,-0.00001864,-0.00000915,-0.00000079,-0.00000202,0.00000886,0.00000469
 ,0.00043801,-0.00037348,0.00003954,0.,0.00000168,0.00000781,0.00000712
 ,0.00000922,0.00000234,0.00000961,-0.00000331,0.00000210,-0.00025453,0
 .00028657,0.00017861,-0.00054655,-0.00005670,-0.00018941,-0.00000308,-
 0.00000068,0.00000163,-0.00001072,0.00002033,0.00000801,0.00000190,-0.
 00001241,-0.00001453,-0.00001268,-0.00000526,-0.00000842,0.00000161,0.
 00000230,0.00000535,0.00000309,-0.00000370,-0.00000346,-0.00001414,-0.
 00000407,-0.00001416,0.00000174,-0.00000037,0.00000123,0.00784957,0.00
 067042,-0.01482983,-0.00331485,-0.00354136,-0.00328697,0.00166371,0.00
 078945,-0.00044582,-0.00022928,-0.00004494,0.00064047,-0.00006447,-0.0
 0005533,0.00034761,0.00057377,-0.00031046,0.00062585,-0.00024905,0.000
 02928,-0.00013600,-0.00017200,0.00028441,-0.00032020,0.00014230,-0.000
 08950,-0.00018348,0.12737835,0.01398435,-0.24714822,-0.13459410,-0.011
 49144,0.26441532,-0.00004840,-0.00014884,-0.00019203,-0.00005040,0.000
 00644,-0.00001917,-0.00000256,-0.00000861,-0.00001252,-0.00005841,0.00
 008360,0.00006420,-0.00001849,0.00000923,-0.00000117,-0.00000499,0.000
 00409,-0.00000103,-0.00000034,0.00010365,0.00004103,-0.00029465,0.0003
 7471,-0.00000868,0.00012095,0.00010359,0.00022311,-0.00000906,-0.00005
 414,-0.00008215,0.00000890,0.00000614,0.00003472,0.00000420,0.00000579
 ,0.00000615,-0.00001462,-0.00000336,-0.00000917,-0.00001874,-0.0000286
 6,0.00000150,0.00000165,-0.00000281,-0.00000287,-0.00001022,0.00000531
 ,0.00000093,-0.00004811,0.00026838,0.00014013,0.00000312,-0.00000198,-
 0.00000341,0.00000188,0.00000302,0.00000367,0.00000890,-0.00001419,0.0
 0000160,0.00003130,-0.00020944,-0.00025876,0.00009915,-0.00007411,-0.0
 0007304,0.00000119,0.00000254,0.00000209,-0.00002017,0.00003654,0.0000
 1323,0.00000784,-0.00002182,-0.00002510,-0.00000613,-0.00001153,-0.000
 01069,0.00000123,0.00000363,0.00000543,0.00000063,-0.00000200,-0.00000
 174,0.00000318,-0.00000117,0.00000014,0.00000272,-0.00000258,0.0000033
 5,-0.01016433,-0.00053015,-0.00396172,0.00126477,0.00005182,0.00074336
 ,0.00000307,-0.00015195,0.00006600,-0.00002717,0.00004244,-0.00011723,
 0.00018560,0.00013966,-0.00089105,0.00116940,-0.00148656,-0.00044880,-
 0.00007324,0.00007120,-0.00008099,0.00009298,-0.00008760,0.00012174,-0
 .00035984,0.00025611,0.00034608,-0.28157296,0.09623323,-0.03565440,-0.
 01332476,0.00592288,-0.00318035,0.29928338,-0.00053953,-0.00035089,-0.
 00080640,-0.00006898,-0.00000560,-0.00002943,-0.00003664,-0.00003209,-
 0.00006542,0.00009835,0.00009007,0.00020705,-0.00003725,0.00002203,0.0
 0000062,0.00000208,0.00000547,0.00000263,0.00041558,0.00011597,0.00036
 667,-0.00072494,0.00094368,0.00009253,0.00009574,0.00022845,0.00034487
 ,0.00001733,-0.00008260,-0.00010824,-0.00001660,0.00002228,0.00004411,
 0.00000375,0.00000541,0.00000399,-0.00004640,0.00002015,-0.00001038,-0
 .00001401,-0.00002386,0.00000585,0.00000182,-0.00000083,-0.00000278,-0
 .00000917,0.00000653,-0.00000204,-0.00005518,0.00026562,0.00013875,0.0
 0000251,-0.00000193,-0.00000292,0.00000108,0.00000070,0.00000319,0.000
 00607,-0.00001098,-0.00000061,0.00004316,-0.00018590,-0.00022834,0.000
 14233,-0.00008517,-0.00006955,0.00000063,0.00000206,0.00000183,-0.0000
 1789,0.00002994,0.00000304,0.00000745,-0.00001720,-0.00001433,-0.00000
 219,-0.00001148,-0.00000631,0.00000041,0.00000356,0.00000391,-0.000000
 14,-0.00000072,-0.00000112,0.00000306,-0.00000214,0.00000150,0.0000028
 8,-0.00000375,0.00000408,-0.01977852,0.00375678,-0.00688736,0.00026235
 ,0.00031509,0.00152480,-0.00029429,-0.00021254,0.00016967,0.00013431,-
 0.00015066,-0.00014290,0.00054432,0.00015075,-0.00003344,0.00212486,-0
 .00304270,-0.00088085,-0.00011928,0.00020088,-0.00005016,-0.00035384,0
 .00018640,-0.00014547,-0.00058001,0.00059450,0.00028555,0.09236285,-0.
 08380938,0.01782167,-0.00245531,0.00035808,-0.00009209,-0.10003207,0.0
 8944453,-0.00032963,-0.00027518,-0.00059585,-0.00006498,-0.00001070,-0
 .00003063,-0.00001859,-0.00001725,-0.00004020,0.00002483,0.00009765,0.
 00015240,-0.00003389,0.00001717,0.00000073,-0.00000099,0.00000539,0.00
 000027,0.00019627,0.00005481,0.00030621,-0.00055698,0.00081837,0.00004
 513,0.00014632,0.00020583,0.00036809,0.00004327,-0.00011565,-0.0001501
 6,-0.00007359,0.00005980,0.00007745,0.00000416,0.00000639,0.00000806,-
 0.00003527,0.00001549,-0.00001235,0.00000218,-0.00003928,0.00001720,0.
 00001305,0.00000280,-0.00000193,-0.00000958,-0.00000033,-0.00000001,-0
 .00023713,0.00042766,0.00013687,0.00000328,-0.00000273,-0.00000868,-0.
 00000250,-0.00000124,0.00000240,0.00000257,-0.00001088,0.00000034,0.00
 015038,-0.00031062,-0.00032348,0.00036689,-0.00004547,0.00002054,0.000
 00336,0.00000293,0.00000077,-0.00001191,0.00001903,0.00000833,0.000006
 57,-0.00001087,-0.00001462,0.00000109,-0.00000626,-0.00000517,0.000000
 10,0.00000110,0.00000146,-0.00000118,0.00000013,0.00000029,0.00000766,
 -0.00000027,0.00000641,0.00000114,-0.00000168,0.00000187,-0.02020366,0
 .00129796,-0.00789510,-0.00051516,0.00132049,0.00193351,-0.00013362,-0
 .00036991,0.00001208,0.00003983,0.00003483,-0.00027910,0.00076483,-0.0
 0020253,-0.00029447,0.00130876,-0.00279427,-0.00071320,-0.00042434,0.0
 0017153,-0.00037855,0.00028469,-0.00006597,-0.00006812,-0.00070324,0.0
 0037891,0.00036909,-0.03833084,0.02134998,-0.05251479,0.02612403,-0.01
 059613,0.00703255,0.04192115,-0.01528299,0.05409900,-0.00051702,-0.000
 04807,-0.00044315,0.00003092,0.00002954,0.00007675,-0.00005680,-0.0000
 3168,-0.00007780,0.00024012,-0.00008228,0.00010680,0.00001202,-0.00000
 804,0.00000436,0.00001170,-0.00000162,0.00000460,0.00047319,-0.0000121
 4,0.00025320,0.00026842,0.00029110,0.00034499,-0.00012746,-0.00019908,
 -0.00034169,-0.00005938,0.00020950,0.00017818,0.00018161,-0.00014557,-
 0.00007488,-0.00001165,-0.00001055,-0.00000659,-0.00001684,0.00001510,
 0.00000509,-0.00002139,0.00002079,0.00001079,-0.00000743,-0.00000874,0
 .00000178,0.00000624,-0.00000130,0.00000762,0.00034412,-0.00041008,0.0
 0001597,-0.00000060,0.00000215,0.00000327,0.00000106,0.00001078,0.0000
 0221,0.00000548,0.00000076,0.00000575,-0.00019285,0.00037948,0.0002162
 9,-0.00026394,0.00016508,-0.00021297,-0.00000043,-0.00000078,0.0000003
 9,0.00000082,0.00000358,0.00001315,-0.00000254,-0.00000295,-0.00001177
 ,-0.00001167,0.00000511,-0.00000677,0.00000180,-0.00000144,0.00000194,
 0.00000299,-0.00000310,-0.00000254,-0.00000480,0.00000283,-0.00001259,
 -0.00000086,0.00000336,-0.00000192,-0.00386922,-0.01571863,-0.00036381
 ,-0.00013043,0.00162892,0.00103625,-0.00026352,-0.00006046,0.00026507,
 0.00055846,0.00025762,-0.00035931,-0.00000981,0.00011434,-0.00007376,0
 .00066515,-0.00136216,0.00039538,0.00001098,0.00014357,-0.00003101,-0.
 00079429,0.00065349,-0.00011163,0.00011291,-0.00005214,-0.00021598,-0.
 04948351,-0.01023019,0.00650009,-0.00052458,-0.01655033,0.00465433,0.0
 0383153,0.02890931,-0.00972933,0.04961152,-0.00032305,-0.00025604,-0.0
 0051330,-0.00005291,-0.00000313,-0.00004046,-0.00002517,-0.00002562,-0
 .00004750,0.00007646,0.00005548,0.00012542,-0.00002896,0.00001756,0.00
 000142,0.00000072,0.00000224,0.00000344,0.00028456,0.00006157,0.000249
 80,-0.00066174,0.00047091,-0.00013812,0.00000339,0.00020269,0.00025343
 ,0.00001748,-0.00004426,-0.00007171,-0.00003234,0.00000956,0.00002301,
 0.00000177,-0.00000404,0.00000329,-0.00002892,0.00000851,-0.00000517,-
 0.00000754,-0.00000885,0.00001612,0.00000812,-0.00000011,0.00000002,0.
 00000181,-0.00000411,0.00000841,0.00004825,-0.00000681,0.00006916,0.00
 000218,-0.00000131,-0.00000477,-0.00000099,0.00000631,0.00000197,0.000
 00448,-0.00000528,0.00000534,0.00002596,0.00004319,-0.00004229,0.00007
 399,0.00009589,-0.00007786,0.00000255,0.00000179,0.00000026,-0.0000038
 8,0.00001213,0.00002080,0.00000120,-0.00000806,-0.00002130,-0.00000703
 ,0.00000102,-0.00000916,0.00000163,-0.00000136,0.00000198,0.00000107,-
 0.00000201,-0.00000108,0.00000065,0.00000272,-0.00000175,-0.00000073,0
 .00000260,-0.00000155,-0.00598515,-0.01427981,-0.00229424,0.00040529,0
 .00173252,0.00145825,-0.00029155,0.00012938,0.00001559,0.00061278,0.00
 010910,-0.00124039,0.00012830,-0.00014946,-0.00013173,0.00242791,-0.00
 056432,0.00075513,0.00016685,0.00007058,0.00012148,-0.00100823,0.00035
 374,-0.00037294,0.00009911,0.00016929,0.00000337,-0.00763388,-0.293449
 90,0.08838655,0.00046108,0.00132610,-0.00001679,-0.00086044,-0.0087385
 3,0.00387196,0.01209493,0.31266811,0.00011530,0.00002728,0.00015392,-0
 .00002023,-0.00001030,-0.00001903,0.00001939,0.00001109,0.00002583,-0.
 00010026,0.00003899,-0.00002839,-0.00000609,0.00000025,-0.00000093,-0.
 00000444,0.00000192,-0.00000242,-0.00019083,-0.00000725,-0.00013587,-0
 .00012310,0.00010043,-0.00013659,0.00003322,0.00003229,0.00008493,0.00
 000988,-0.00001661,-0.00005236,-0.00001880,-0.00000728,0.00002050,-0.0
 0000004,-0.00000201,0.00000506,0.00000658,-0.00000184,0.00000221,-0.00
 001170,-0.00001469,0.00003735,0.00000558,-0.00000198,-0.00000210,0.000
 00035,-0.00000334,0.00000923,0.00002692,-0.00003955,0.00005711,0.00000
 241,-0.00000145,-0.00000587,-0.00000145,0.00000647,0.00000271,0.000004
 17,-0.00000434,0.00000395,0.00006451,0.00008107,-0.00008129,0.00013201
 ,0.00016818,-0.00012447,0.00000273,0.00000186,0.00000031,-0.00000480,0
 .00001211,0.00001555,0.00000214,-0.00000760,-0.00001708,-0.00000528,-0
 .00000020,-0.00000738,0.00000112,-0.00000131,0.00000130,0.00000042,-0.
 00000103,-0.00000105,0.00000202,0.00000351,-0.00000188,-0.00000033,0.0
 0000162,-0.00000054,-0.00736546,-0.02416203,-0.00155755,0.00010449,-0.
 00040716,0.00323964,-0.00050229,-0.00007445,0.00009348,0.00030681,0.00
 131535,-0.00011666,0.00010918,0.00009014,-0.00031240,0.00140115,-0.000
 80296,0.00034202,0.00002528,-0.00000216,-0.00000215,-0.00009577,0.0004
 2301,0.00034844,-0.00000799,-0.00015228,-0.00003688,0.00715899,0.08322
 665,-0.07308624,-0.00034546,0.02670690,-0.00672101,0.00129646,0.003836
 80,-0.00127465,-0.00202679,-0.09036410,0.07928123\\0.00000021,0.000000
 86,-0.00000154,0.00000034,0.00000052,-0.00000075,0.00000049,0.00000088
 ,-0.00000109,0.00000065,0.00000109,-0.00000125,0.00000019,0.00000031,-
 0.00000067,0.00000050,0.00000097,-0.00000127,0.00000066,0.00000137,-0.
 00000114,0.00000017,0.00000087,-0.00000069,0.00000048,0.00000058,-0.00
 000023,0.00000007,0.00000002,-0.00000034,0.00000001,-0.00000007,-0.000
 00024,-0.00000002,-0.00000014,-0.00000025,0.00000064,0.00000142,-0.000
 00152,-0.00000031,-0.00000068,0.00000061,-0.00000027,-0.00000044,0.000
 00078,-0.00000043,-0.00000091,0.00000105,-0.00000018,-0.00000042,0.000
 00028,-0.00000050,-0.00000127,0.00000085,-0.00000040,-0.00000076,0.000
 00128,-0.00000072,-0.00000098,0.00000142,-0.00000007,-0.00000026,-0.00
 000012,-0.00000015,-0.00000044,0.00000037,-0.00000054,-0.00000091,0.00
 000161,-0.00000068,-0.00000166,0.00000131,-0.00000087,-0.00000172,0.00
 000221,-0.00000068,-0.00000157,0.00000111,-0.00000065,-0.00000182,0.00
 000097,-0.00000071,-0.00000177,0.00000146,-0.00000034,-0.00000096,0.00
 000037,-0.00000058,-0.00000111,0.00000219,0.00000029,0.00000071,-0.000
 00017,0.00000014,0.00000020,-0.00000044,-0.00000001,-0.00000010,-0.000
 00016,0.00000015,0.00000010,-0.00000079,0.00000013,0.00000016,-0.00000
 038,0.00000007,0.00000088,-0.00000053,0.00000037,0.00000099,-0.0000002
 1,0.00000043,0.00000081,-0.00000084,0.00000021,0.00000032,-0.00000037,
 0.00000046,0.00000118,-0.00000064,0.00000053,0.00000153,-0.00000057,0.
 00000045,0.00000116,-0.00000062,0.00000047,0.00000105,-0.00000105\\\@


            ARSENIC

 FOR SMELTER FUMES HAVE I BEEN NAMED,
    I AM AN EVIL POISONOUS SMOKE...
 BUT WHEN FROM POISON I AM FREED,
    THROUGH ART AND SLEIGHT OF HAND,
 THEN CAN I CURE BOTH MAN AND BEAST,
    FROM DIRE DISEASE OFTTIMES DIRECT THEM;
 BUT PREPARE ME CORRECTLY, AND TAKE GREAT CARE
    THAT YOU FAITHFULLY KEEP WATCHFUL GUARD OVER ME;
 FOR ELSE I AM POISON, AND POISON REMAIN,
    THAT PIERCES THE HEART OF MANY A ONE.

 ATTRIBUTED TO THE PROBABLY MYTHICAL 15TH
 CENTURY MONK, BASILIUS VALENTINUS
 Job cpu time:       0 days  1 hours 29 minutes 37.2 seconds.
 File lengths (MBytes):  RWF=    750 Int=      0 D2E=      0 Chk=     12 Scr=      1
 Normal termination of Gaussian 09 at Thu Mar 25 07:07:41 2021.
