 Entering Gaussian System, Link 0=g09
 Initial command:
 /opt/software/gaussian/g09.e01/l1.exe "/localscratch/enas93.64620679.0/Gau-169535.inp" -scrdir="/localscratch/enas93.64620679.0/"
 Entering Link 1 = /opt/software/gaussian/g09.e01/l1.exe PID=    169536.
  
 Copyright (c) 1988,1990,1992,1993,1995,1998,2003,2009,2015,
            Gaussian, Inc.  All Rights Reserved.
  
 This is part of the Gaussian(R) 09 program.  It is based on
 the Gaussian(R) 03 system (copyright 2003, Gaussian, Inc.),
 the Gaussian(R) 98 system (copyright 1998, Gaussian, Inc.),
 the Gaussian(R) 94 system (copyright 1995, Gaussian, Inc.),
 the Gaussian 92(TM) system (copyright 1992, Gaussian, Inc.),
 the Gaussian 90(TM) system (copyright 1990, Gaussian, Inc.),
 the Gaussian 88(TM) system (copyright 1988, Gaussian, Inc.),
 the Gaussian 86(TM) system (copyright 1986, Carnegie Mellon
 University), and the Gaussian 82(TM) system (copyright 1983,
 Carnegie Mellon University). Gaussian is a federally registered
 trademark of Gaussian, Inc.
  
 This software contains proprietary and confidential information,
 including trade secrets, belonging to Gaussian, Inc.
  
 This software is provided under written license and may be
 used, copied, transmitted, or stored only in accord with that
 written license.
  
 The following legend is applicable only to US Government
 contracts under FAR:
  
                    RESTRICTED RIGHTS LEGEND
  
 Use, reproduction and disclosure by the US Government is
 subject to restrictions as set forth in subparagraphs (a)
 and (c) of the Commercial Computer Software - Restricted
 Rights clause in FAR 52.227-19.
  
 Gaussian, Inc.
 340 Quinnipiac St., Bldg. 40, Wallingford CT 06492
  
  
 ---------------------------------------------------------------
 Warning -- This program may not be used in any manner that
 competes with the business of Gaussian, Inc. or will provide
 assistance to any competitor of Gaussian, Inc.  The licensee
 of this program is prohibited from giving any competitor of
 Gaussian, Inc. access to this program.  By using this program,
 the user acknowledges that Gaussian, Inc. is engaged in the
 business of creating and licensing software in the field of
 computational chemistry and represents and warrants to the
 licensee that it is not a competitor of Gaussian, Inc. and that
 it will not use this program in any manner prohibited above.
 ---------------------------------------------------------------
  

 Cite this work as:
 Gaussian 09, Revision E.01,
 M. J. Frisch, G. W. Trucks, H. B. Schlegel, G. E. Scuseria, 
 M. A. Robb, J. R. Cheeseman, G. Scalmani, V. Barone, B. Mennucci, 
 G. A. Petersson, H. Nakatsuji, M. Caricato, X. Li, H. P. Hratchian, 
 A. F. Izmaylov, J. Bloino, G. Zheng, J. L. Sonnenberg, M. Hada, 
 M. Ehara, K. Toyota, R. Fukuda, J. Hasegawa, M. Ishida, T. Nakajima, 
 Y. Honda, O. Kitao, H. Nakai, T. Vreven, J. A. Montgomery, Jr., 
 J. E. Peralta, F. Ogliaro, M. Bearpark, J. J. Heyd, E. Brothers, 
 K. N. Kudin, V. N. Staroverov, T. Keith, R. Kobayashi, J. Normand, 
 K. Raghavachari, A. Rendell, J. C. Burant, S. S. Iyengar, J. Tomasi, 
 M. Cossi, N. Rega, J. M. Millam, M. Klene, J. E. Knox, J. B. Cross, 
 V. Bakken, C. Adamo, J. Jaramillo, R. Gomperts, R. E. Stratmann, 
 O. Yazyev, A. J. Austin, R. Cammi, C. Pomelli, J. W. Ochterski, 
 R. L. Martin, K. Morokuma, V. G. Zakrzewski, G. A. Voth, 
 P. Salvador, J. J. Dannenberg, S. Dapprich, A. D. Daniels, 
 O. Farkas, J. B. Foresman, J. V. Ortiz, J. Cioslowski, 
 and D. J. Fox, Gaussian, Inc., Wallingford CT, 2013.
 
 ******************************************
 Gaussian 09:  EM64L-G09RevE.01 30-Nov-2015
                25-Mar-2021 
 ******************************************
 %nprocshared=16
 Will use up to   16 processors via shared memory.
 %mem=10GB
 --------------------------------------
 # opt=tight freq b3lyp/6-31g(d) nosymm
 --------------------------------------
 1/7=10,14=-1,18=20,19=15,26=3,38=1/1,3;
 2/9=110,12=2,15=1,17=6,18=5,40=1/2;
 3/5=1,6=6,7=1,11=2,16=1,25=1,30=1,71=1,74=-5/1,2,3;
 4//1;
 5/5=2,38=5/2;
 6/7=2,8=2,9=2,10=2,28=1/1;
 7/30=1/1,2,3,16;
 1/7=10,14=-1,18=20,19=15,26=3/3(2);
 2/9=110,15=1/2;
 99//99;
 2/9=110,15=1/2;
 3/5=1,6=6,7=1,11=2,16=1,25=1,30=1,71=1,74=-5/1,2,3;
 4/5=5,16=3,69=1/1;
 5/5=2,38=5/2;
 7/30=1/1,2,3,16;
 1/7=10,14=-1,18=20,19=15,26=3/3(-5);
 2/9=110,15=1/2;
 6/7=2,8=2,9=2,10=2,19=2,28=1/1;
 99/9=1/99;
 -------------------
 Title Card Required
 -------------------
 Symbolic Z-matrix:
 Charge =  0 Multiplicity = 1
 C                    -0.37658   3.25941   2.9025 
 C                    -2.56928   3.9884    1.31051 
 C                    -2.30575   4.67786   2.44772 
 N                    -1.24444   4.33089   3.22751 
 H                    -3.41205   4.24376   0.67948 
 H                    -2.90823   5.51311   2.78978 
 O                     0.55359   3.01028   3.67515 
 N                    -0.63807   2.57346   1.75938 
 C                    -1.67961   2.89382   0.98682 
 N                    -1.89531   2.16712  -0.11777 
 H                    -1.32574   1.33521  -0.35014 
 H                    -2.69759   2.36827  -0.6952 
 H                    -1.02852   4.82752   4.08158 
 C                    -0.5428   -2.03143  -2.18581 
 H                    -1.51331  -2.35114  -1.77983 
 C                     0.27135  -3.24539  -2.63328 
 C                     0.14196  -1.16172  -1.1158 
 H                     1.24082  -2.91253  -3.02813 
 H                     0.50823  -3.86615  -1.76097 
 C                    -0.44441  -4.09803  -3.69884 
 O                    -0.48024  -0.1032   -0.79121 
 O                     1.24135  -1.54581  -0.63639 
 H                    -1.42269  -4.39899  -3.28266 
 C                     0.31794  -5.39897  -3.91972 
 O                     0.69769  -5.79277  -5.00218 
 N                    -0.68486  -3.34186  -4.92453 
 H                     0.21262  -2.99255  -5.26324 
 H                    -0.99544  -3.98954  -5.64922 
 H                    -0.78549  -1.39462  -3.04364 
 H                     0.51163  -5.99466  -2.99686 
 S                     2.28457  -0.19643   1.57901 
 C                     2.1804    1.20221   0.4167 
 H                     1.73512   0.8062   -0.49433 
 H                     1.545     1.97425   0.85298 
 H                     3.20709   1.54295   0.25927 
 C                     0.56964  -0.46574   2.13248 
 H                     0.55394  -1.44581   2.61388 
 H                     0.2854    0.33969   2.80843 
 H                    -0.04577  -0.45206   1.22836 
 C                     2.93678   0.69944   3.04227 
 H                     2.9695   -0.0095    3.87384 
 H                     3.95478   1.02127   2.80774 
 H                     2.29176   1.55171   3.28388 
 
 Add virtual bond connecting atoms O21        and H11        Dist= 3.26D+00.
 Add virtual bond connecting atoms H39        and O21        Dist= 3.96D+00.

 GradGradGradGradGradGradGradGradGradGradGradGradGradGradGradGradGradGrad
 Berny optimization.
 Initialization pass.
                           ----------------------------
                           !    Initial Parameters    !
                           ! (Angstroms and Degrees)  !
 --------------------------                            --------------------------
 ! Name  Definition              Value          Derivative Info.                !
 --------------------------------------------------------------------------------
 ! R1    R(1,4)                  1.4166         estimate D2E/DX2                !
 ! R2    R(1,7)                  1.2346         estimate D2E/DX2                !
 ! R3    R(1,8)                  1.3585         estimate D2E/DX2                !
 ! R4    R(2,3)                  1.3557         estimate D2E/DX2                !
 ! R5    R(2,5)                  1.0834         estimate D2E/DX2                !
 ! R6    R(2,9)                  1.4472         estimate D2E/DX2                !
 ! R7    R(3,4)                  1.3619         estimate D2E/DX2                !
 ! R8    R(3,6)                  1.0852         estimate D2E/DX2                !
 ! R9    R(4,13)                 1.0113         estimate D2E/DX2                !
 ! R10   R(8,9)                  1.3358         estimate D2E/DX2                !
 ! R11   R(9,10)                 1.3397         estimate D2E/DX2                !
 ! R12   R(10,11)                1.0346         estimate D2E/DX2                !
 ! R13   R(10,12)                1.0087         estimate D2E/DX2                !
 ! R14   R(11,21)                1.7258         estimate D2E/DX2                !
 ! R15   R(14,15)                1.0995         estimate D2E/DX2                !
 ! R16   R(14,16)                1.5286         estimate D2E/DX2                !
 ! R17   R(14,17)                1.5396         estimate D2E/DX2                !
 ! R18   R(14,29)                1.0956         estimate D2E/DX2                !
 ! R19   R(16,18)                1.0984         estimate D2E/DX2                !
 ! R20   R(16,19)                1.0965         estimate D2E/DX2                !
 ! R21   R(16,20)                1.541          estimate D2E/DX2                !
 ! R22   R(17,21)                1.27           estimate D2E/DX2                !
 ! R23   R(17,22)                1.2594         estimate D2E/DX2                !
 ! R24   R(20,23)                1.1049         estimate D2E/DX2                !
 ! R25   R(20,24)                1.5239         estimate D2E/DX2                !
 ! R26   R(20,26)                1.4601         estimate D2E/DX2                !
 ! R27   R(21,39)                2.095          estimate D2E/DX2                !
 ! R28   R(24,25)                1.2129         estimate D2E/DX2                !
 ! R29   R(24,30)                1.1154         estimate D2E/DX2                !
 ! R30   R(26,27)                1.0209         estimate D2E/DX2                !
 ! R31   R(26,28)                1.0204         estimate D2E/DX2                !
 ! R32   R(31,32)                1.8215         estimate D2E/DX2                !
 ! R33   R(31,36)                1.822          estimate D2E/DX2                !
 ! R34   R(31,40)                1.8355         estimate D2E/DX2                !
 ! R35   R(32,33)                1.0886         estimate D2E/DX2                !
 ! R36   R(32,34)                1.0909         estimate D2E/DX2                !
 ! R37   R(32,35)                1.0931         estimate D2E/DX2                !
 ! R38   R(36,37)                1.092          estimate D2E/DX2                !
 ! R39   R(36,38)                1.0892         estimate D2E/DX2                !
 ! R40   R(36,39)                1.0938         estimate D2E/DX2                !
 ! R41   R(40,41)                1.0932         estimate D2E/DX2                !
 ! R42   R(40,42)                1.0931         estimate D2E/DX2                !
 ! R43   R(40,43)                1.0958         estimate D2E/DX2                !
 ! A1    A(4,1,7)              118.0734         estimate D2E/DX2                !
 ! A2    A(4,1,8)              117.1954         estimate D2E/DX2                !
 ! A3    A(7,1,8)              124.7299         estimate D2E/DX2                !
 ! A4    A(3,2,5)              121.3276         estimate D2E/DX2                !
 ! A5    A(3,2,9)              116.9207         estimate D2E/DX2                !
 ! A6    A(5,2,9)              121.7504         estimate D2E/DX2                !
 ! A7    A(2,3,4)              120.1446         estimate D2E/DX2                !
 ! A8    A(2,3,6)              123.2232         estimate D2E/DX2                !
 ! A9    A(4,3,6)              116.6316         estimate D2E/DX2                !
 ! A10   A(1,4,3)              122.5973         estimate D2E/DX2                !
 ! A11   A(1,4,13)             115.7465         estimate D2E/DX2                !
 ! A12   A(3,4,13)             121.6561         estimate D2E/DX2                !
 ! A13   A(1,8,9)              121.0399         estimate D2E/DX2                !
 ! A14   A(2,9,8)              122.0981         estimate D2E/DX2                !
 ! A15   A(2,9,10)             119.717          estimate D2E/DX2                !
 ! A16   A(8,9,10)             118.1847         estimate D2E/DX2                !
 ! A17   A(9,10,11)            122.1882         estimate D2E/DX2                !
 ! A18   A(9,10,12)            119.4634         estimate D2E/DX2                !
 ! A19   A(11,10,12)           118.0087         estimate D2E/DX2                !
 ! A20   A(15,14,16)           110.3209         estimate D2E/DX2                !
 ! A21   A(15,14,17)           107.4714         estimate D2E/DX2                !
 ! A22   A(15,14,29)           105.2241         estimate D2E/DX2                !
 ! A23   A(16,14,17)           114.5305         estimate D2E/DX2                !
 ! A24   A(16,14,29)           110.5106         estimate D2E/DX2                !
 ! A25   A(17,14,29)           108.3221         estimate D2E/DX2                !
 ! A26   A(14,16,18)           109.5504         estimate D2E/DX2                !
 ! A27   A(14,16,19)           109.3758         estimate D2E/DX2                !
 ! A28   A(14,16,20)           113.2302         estimate D2E/DX2                !
 ! A29   A(18,16,19)           105.4766         estimate D2E/DX2                !
 ! A30   A(18,16,20)           109.2107         estimate D2E/DX2                !
 ! A31   A(19,16,20)           109.7056         estimate D2E/DX2                !
 ! A32   A(14,17,21)           115.503          estimate D2E/DX2                !
 ! A33   A(14,17,22)           118.7219         estimate D2E/DX2                !
 ! A34   A(21,17,22)           125.7738         estimate D2E/DX2                !
 ! A35   A(16,20,23)           107.5478         estimate D2E/DX2                !
 ! A36   A(16,20,24)           109.889          estimate D2E/DX2                !
 ! A37   A(16,20,26)           111.7403         estimate D2E/DX2                !
 ! A38   A(23,20,24)           105.3662         estimate D2E/DX2                !
 ! A39   A(23,20,26)           108.1467         estimate D2E/DX2                !
 ! A40   A(24,20,26)           113.7539         estimate D2E/DX2                !
 ! A41   A(11,21,39)            89.6573         estimate D2E/DX2                !
 ! A42   A(17,21,39)            90.3427         estimate D2E/DX2                !
 ! A43   A(20,24,25)           124.2749         estimate D2E/DX2                !
 ! A44   A(20,24,30)           115.0155         estimate D2E/DX2                !
 ! A45   A(25,24,30)           120.7091         estimate D2E/DX2                !
 ! A46   A(20,26,27)           108.1162         estimate D2E/DX2                !
 ! A47   A(20,26,28)           108.5178         estimate D2E/DX2                !
 ! A48   A(27,26,28)           104.4269         estimate D2E/DX2                !
 ! A49   A(32,31,36)           104.6849         estimate D2E/DX2                !
 ! A50   A(32,31,40)            98.8732         estimate D2E/DX2                !
 ! A51   A(36,31,40)            99.4639         estimate D2E/DX2                !
 ! A52   A(31,32,33)           106.1451         estimate D2E/DX2                !
 ! A53   A(31,32,34)           108.7539         estimate D2E/DX2                !
 ! A54   A(31,32,35)           106.1125         estimate D2E/DX2                !
 ! A55   A(33,32,34)           110.7248         estimate D2E/DX2                !
 ! A56   A(33,32,35)           112.1505         estimate D2E/DX2                !
 ! A57   A(34,32,35)           112.5841         estimate D2E/DX2                !
 ! A58   A(31,36,37)           106.2663         estimate D2E/DX2                !
 ! A59   A(31,36,38)           108.9552         estimate D2E/DX2                !
 ! A60   A(31,36,39)           106.0588         estimate D2E/DX2                !
 ! A61   A(37,36,38)           112.7259         estimate D2E/DX2                !
 ! A62   A(37,36,39)           111.5627         estimate D2E/DX2                !
 ! A63   A(38,36,39)           110.9096         estimate D2E/DX2                !
 ! A64   A(21,39,36)           156.2909         estimate D2E/DX2                !
 ! A65   A(31,40,41)           107.4884         estimate D2E/DX2                !
 ! A66   A(31,40,42)           107.6719         estimate D2E/DX2                !
 ! A67   A(31,40,43)           110.256          estimate D2E/DX2                !
 ! A68   A(41,40,42)           109.0417         estimate D2E/DX2                !
 ! A69   A(41,40,43)           110.7481         estimate D2E/DX2                !
 ! A70   A(42,40,43)           111.5            estimate D2E/DX2                !
 ! A71   L(10,11,21,7,-1)      183.6265         estimate D2E/DX2                !
 ! A72   L(11,21,17,39,-1)     180.0            estimate D2E/DX2                !
 ! A73   L(10,11,21,7,-2)      177.6895         estimate D2E/DX2                !
 ! A74   L(11,21,17,39,-2)     180.0            estimate D2E/DX2                !
 ! D1    D(7,1,4,3)           -179.4041         estimate D2E/DX2                !
 ! D2    D(7,1,4,13)             0.5231         estimate D2E/DX2                !
 ! D3    D(8,1,4,3)              0.2011         estimate D2E/DX2                !
 ! D4    D(8,1,4,13)          -179.8717         estimate D2E/DX2                !
 ! D5    D(4,1,8,9)             -0.646          estimate D2E/DX2                !
 ! D6    D(7,1,8,9)            178.9302         estimate D2E/DX2                !
 ! D7    D(5,2,3,4)            179.5935         estimate D2E/DX2                !
 ! D8    D(5,2,3,6)             -0.1387         estimate D2E/DX2                !
 ! D9    D(9,2,3,4)              0.0091         estimate D2E/DX2                !
 ! D10   D(9,2,3,6)           -179.7231         estimate D2E/DX2                !
 ! D11   D(3,2,9,8)             -0.4588         estimate D2E/DX2                !
 ! D12   D(3,2,9,10)           179.3972         estimate D2E/DX2                !
 ! D13   D(5,2,9,8)            179.9587         estimate D2E/DX2                !
 ! D14   D(5,2,9,10)            -0.1853         estimate D2E/DX2                !
 ! D15   D(2,3,4,1)              0.1073         estimate D2E/DX2                !
 ! D16   D(2,3,4,13)          -179.8157         estimate D2E/DX2                !
 ! D17   D(6,3,4,1)            179.8567         estimate D2E/DX2                !
 ! D18   D(6,3,4,13)            -0.0663         estimate D2E/DX2                !
 ! D19   D(1,8,9,2)              0.7948         estimate D2E/DX2                !
 ! D20   D(1,8,9,10)          -179.0634         estimate D2E/DX2                !
 ! D21   D(2,9,10,11)         -175.4932         estimate D2E/DX2                !
 ! D22   D(2,9,10,12)           -2.3217         estimate D2E/DX2                !
 ! D23   D(8,9,10,11)            4.3684         estimate D2E/DX2                !
 ! D24   D(8,9,10,12)          177.5399         estimate D2E/DX2                !
 ! D25   D(9,10,21,39)          25.8474         estimate D2E/DX2                !
 ! D26   D(12,10,21,39)       -145.8789         estimate D2E/DX2                !
 ! D27   D(15,14,16,18)       -179.5087         estimate D2E/DX2                !
 ! D28   D(15,14,16,19)        -64.3545         estimate D2E/DX2                !
 ! D29   D(15,14,16,20)         58.3234         estimate D2E/DX2                !
 ! D30   D(17,14,16,18)        -58.1145         estimate D2E/DX2                !
 ! D31   D(17,14,16,19)         57.0397         estimate D2E/DX2                !
 ! D32   D(17,14,16,20)        179.7177         estimate D2E/DX2                !
 ! D33   D(29,14,16,18)         64.5461         estimate D2E/DX2                !
 ! D34   D(29,14,16,19)        179.7003         estimate D2E/DX2                !
 ! D35   D(29,14,16,20)        -57.6218         estimate D2E/DX2                !
 ! D36   D(15,14,17,21)        -61.2784         estimate D2E/DX2                !
 ! D37   D(15,14,17,22)        118.3349         estimate D2E/DX2                !
 ! D38   D(16,14,17,21)        175.7765         estimate D2E/DX2                !
 ! D39   D(16,14,17,22)         -4.6103         estimate D2E/DX2                !
 ! D40   D(29,14,17,21)         51.9392         estimate D2E/DX2                !
 ! D41   D(29,14,17,22)       -128.4475         estimate D2E/DX2                !
 ! D42   D(14,16,20,23)        -56.4346         estimate D2E/DX2                !
 ! D43   D(14,16,20,24)       -170.6361         estimate D2E/DX2                !
 ! D44   D(14,16,20,26)         62.1046         estimate D2E/DX2                !
 ! D45   D(18,16,20,23)       -178.7917         estimate D2E/DX2                !
 ! D46   D(18,16,20,24)         67.0067         estimate D2E/DX2                !
 ! D47   D(18,16,20,26)        -60.2526         estimate D2E/DX2                !
 ! D48   D(19,16,20,23)         66.0602         estimate D2E/DX2                !
 ! D49   D(19,16,20,24)        -48.1414         estimate D2E/DX2                !
 ! D50   D(19,16,20,26)       -175.4006         estimate D2E/DX2                !
 ! D51   D(14,17,21,39)        137.5142         estimate D2E/DX2                !
 ! D52   D(22,17,21,39)        -42.0678         estimate D2E/DX2                !
 ! D53   D(16,20,24,25)       -126.2761         estimate D2E/DX2                !
 ! D54   D(16,20,24,30)         53.9779         estimate D2E/DX2                !
 ! D55   D(23,20,24,25)        118.1336         estimate D2E/DX2                !
 ! D56   D(23,20,24,30)        -61.6123         estimate D2E/DX2                !
 ! D57   D(26,20,24,25)         -0.1499         estimate D2E/DX2                !
 ! D58   D(26,20,24,30)       -179.8958         estimate D2E/DX2                !
 ! D59   D(16,20,26,27)         56.7999         estimate D2E/DX2                !
 ! D60   D(16,20,26,28)        169.5078         estimate D2E/DX2                !
 ! D61   D(23,20,26,27)        174.9818         estimate D2E/DX2                !
 ! D62   D(23,20,26,28)        -72.3103         estimate D2E/DX2                !
 ! D63   D(24,20,26,27)        -68.3446         estimate D2E/DX2                !
 ! D64   D(24,20,26,28)         44.3633         estimate D2E/DX2                !
 ! D65   D(11,21,39,36)       -101.5179         estimate D2E/DX2                !
 ! D66   D(17,21,39,36)         78.4821         estimate D2E/DX2                !
 ! D67   D(36,31,32,33)        -74.0688         estimate D2E/DX2                !
 ! D68   D(36,31,32,34)         45.0982         estimate D2E/DX2                !
 ! D69   D(36,31,32,35)        166.4462         estimate D2E/DX2                !
 ! D70   D(40,31,32,33)       -176.364          estimate D2E/DX2                !
 ! D71   D(40,31,32,34)        -57.1971         estimate D2E/DX2                !
 ! D72   D(40,31,32,35)         64.151          estimate D2E/DX2                !
 ! D73   D(32,31,36,37)        165.3863         estimate D2E/DX2                !
 ! D74   D(32,31,36,38)        -72.897          estimate D2E/DX2                !
 ! D75   D(32,31,36,39)         46.5451         estimate D2E/DX2                !
 ! D76   D(40,31,36,37)        -92.7642         estimate D2E/DX2                !
 ! D77   D(40,31,36,38)         28.9525         estimate D2E/DX2                !
 ! D78   D(40,31,36,39)        148.3947         estimate D2E/DX2                !
 ! D79   D(32,31,40,41)        174.9073         estimate D2E/DX2                !
 ! D80   D(32,31,40,42)        -67.7448         estimate D2E/DX2                !
 ! D81   D(32,31,40,43)         54.0976         estimate D2E/DX2                !
 ! D82   D(36,31,40,41)         68.2805         estimate D2E/DX2                !
 ! D83   D(36,31,40,42)       -174.3717         estimate D2E/DX2                !
 ! D84   D(36,31,40,43)        -52.5292         estimate D2E/DX2                !
 ! D85   D(31,36,39,21)        -13.6291         estimate D2E/DX2                !
 ! D86   D(37,36,39,21)       -128.9168         estimate D2E/DX2                !
 ! D87   D(38,36,39,21)        104.5237         estimate D2E/DX2                !
 --------------------------------------------------------------------------------
 Trust Radius=3.00D-01 FncErr=1.00D-07 GrdErr=1.00D-06
 Number of steps in this run=    214 maximum allowed number of steps=    258.
 GradGradGradGradGradGradGradGradGradGradGradGradGradGradGradGradGradGrad

                          Input orientation:                          
 ---------------------------------------------------------------------
 Center     Atomic      Atomic             Coordinates (Angstroms)
 Number     Number       Type             X           Y           Z
 ---------------------------------------------------------------------
      1          6           0       -0.376583    3.259413    2.902501
      2          6           0       -2.569277    3.988401    1.310512
      3          6           0       -2.305746    4.677861    2.447721
      4          7           0       -1.244442    4.330885    3.227509
      5          1           0       -3.412052    4.243756    0.679477
      6          1           0       -2.908228    5.513114    2.789784
      7          8           0        0.553592    3.010279    3.675147
      8          7           0       -0.638067    2.573459    1.759383
      9          6           0       -1.679614    2.893822    0.986818
     10          7           0       -1.895313    2.167117   -0.117769
     11          1           0       -1.325744    1.335210   -0.350138
     12          1           0       -2.697590    2.368267   -0.695201
     13          1           0       -1.028524    4.827517    4.081583
     14          6           0       -0.542801   -2.031430   -2.185813
     15          1           0       -1.513309   -2.351136   -1.779830
     16          6           0        0.271347   -3.245391   -2.633280
     17          6           0        0.141963   -1.161718   -1.115800
     18          1           0        1.240815   -2.912533   -3.028129
     19          1           0        0.508228   -3.866151   -1.760969
     20          6           0       -0.444411   -4.098026   -3.698842
     21          8           0       -0.480240   -0.103198   -0.791214
     22          8           0        1.241350   -1.545812   -0.636394
     23          1           0       -1.422691   -4.398986   -3.282664
     24          6           0        0.317942   -5.398966   -3.919723
     25          8           0        0.697688   -5.792769   -5.002185
     26          7           0       -0.684857   -3.341862   -4.924528
     27          1           0        0.212623   -2.992545   -5.263238
     28          1           0       -0.995438   -3.989541   -5.649217
     29          1           0       -0.785492   -1.394622   -3.043637
     30          1           0        0.511626   -5.994655   -2.996856
     31         16           0        2.284567   -0.196425    1.579014
     32          6           0        2.180405    1.202211    0.416695
     33          1           0        1.735120    0.806197   -0.494326
     34          1           0        1.545002    1.974246    0.852976
     35          1           0        3.207087    1.542946    0.259265
     36          6           0        0.569642   -0.465742    2.132485
     37          1           0        0.553935   -1.445805    2.613876
     38          1           0        0.285396    0.339691    2.808431
     39          1           0       -0.045765   -0.452064    1.228361
     40          6           0        2.936782    0.699438    3.042272
     41          1           0        2.969498   -0.009502    3.873838
     42          1           0        3.954779    1.021268    2.807735
     43          1           0        2.291758    1.551710    3.283883
 ---------------------------------------------------------------------
                    Distance matrix (angstroms):
                    1          2          3          4          5
     1  C    0.000000
     2  C    2.806022   0.000000
     3  C    2.437312   1.355746   0.000000
     4  N    1.416637   2.355284   1.361921   0.000000
     5  H    3.889067   1.083366   2.130504   3.346430   0.000000
     6  H    3.391327   2.151252   1.085191   2.087451   2.513663
     7  O    1.234615   4.037392   3.530328   2.275369   5.120726
     8  N    1.358538   2.435799   2.771907   2.368888   3.413368
     9  C    2.345504   1.447198   2.389367   2.697262   2.217684
    10  N    3.552701   2.410662   3.613036   4.036881   2.692309
    11  H    3.896553   3.368019   4.467856   4.666930   3.724571
    12  H    4.373177   2.581508   3.919914   4.620732   2.432623
    13  H    2.067417   3.279767   2.079230   1.011289   4.194795
    14  C    7.342451   7.250466   8.342194   8.383043   7.471308
    15  H    7.395582   7.131270   8.240567   8.354348   7.290131
    16  C    8.566047   8.714952   9.758888   9.697753   8.979371
    17  C    5.996835   6.305675   7.265717   7.138287   6.713657
    18  H    8.710985   8.997972  10.008852   9.888206   9.306341
    19  H    8.561805   8.977696   9.931347   9.754392   9.332468
    20  C    9.885051   9.746742  10.874787  10.938964   9.877343
    21  O    4.996141   5.051981   6.056542   6.032846   5.445591
    22  O    6.183177   6.995630   7.799215   7.459522   7.543525
    23  H    9.899580   9.631209  10.770620  10.891500   9.713553
    24  C   11.045027  11.127176  12.205348  12.173495  11.315811
    25  O   12.065659  12.091091  13.196811  13.190455  12.243491
    26  N   10.243742   9.806096  11.013323  11.208920   9.817539
    27  H   10.301138   9.984326  11.164058  11.307009  10.040826
    28  H   11.227742  10.703381  11.933196  12.169131  10.662062
    29  H    7.561997   7.149646   8.327138   8.504078   7.249255
    30  H   11.010409  11.300743  12.307867  12.183730  11.564417
    31  S    4.558087   6.414411   6.751614   5.972267   7.278451
    32  C    4.116977   5.578642   6.027500   5.423915   6.371470
    33  H    4.692120   5.649044   6.322501   5.929019   6.299842
    34  H    3.089449   4.603635   4.967998   4.355818   5.454646
    35  H    4.772384   6.360169   6.708827   6.033174   7.161282
    36  C    3.919827   5.510702   5.901176   5.243816   6.335968
    37  H    4.805023   6.401860   6.760523   6.081188   7.200143
    38  H    2.995303   4.868881   5.065950   4.294841   5.783190
    39  H    4.085003   5.108091   5.736766   5.320716   5.803782
    40  C    4.189439   6.643264   6.607983   5.541151   7.645435
    41  H    4.777610   7.296019   7.199540   6.083912   8.307727
    42  H    4.876369   7.321807   7.259095   6.177514   8.317699
    43  H    3.190885   5.784576   5.622191   4.497966   6.823745
                    6          7          8          9         10
     6  H    0.000000
     7  O    4.362597   0.000000
     8  N    3.854469   2.298046   0.000000
     9  C    3.408940   3.496839   1.335780   0.000000
    10  N    4.547038   4.592850   2.295535   1.339679   0.000000
    11  H    5.460609   4.747703   2.540913   2.083734   1.034637
    12  H    4.698888   5.484734   3.210720   2.035110   1.008731
    13  H    2.381612   2.443488   3.259731   3.706840   5.046148
    14  C    9.341946   7.808442   6.064540   5.967917   4.871744
    15  H    9.201826   7.922981   6.127292   5.932249   4.829388
    16  C   10.781036   8.888719   7.347213   7.389269   6.349603
    17  C    8.313281   6.366174   4.777727   4.917982   4.028362
    18  H   11.047814   8.971393   7.519746   7.639533   6.641411
    19  H   10.970512   8.765769   7.428018   7.618019   6.699062
    20  C   11.855238  10.290759   8.621974   8.506884   7.360789
    21  O    7.089544   5.541744   3.700668   3.685380   2.758675
    22  O    8.876155   6.310338   5.122533   5.556725   4.888095
    23  H   11.718838  10.354421   8.640189   8.454557   7.304358
    24  C   13.209813  11.333710   9.834925   9.840463   8.752083
    25  O   14.196493  12.361655  10.839595  10.815571   9.692314
    26  N   11.952598  10.762800   8.925686   8.649700   7.410734
    27  H   12.121762  10.772413   9.001182   8.791648   7.585602
    28  H   12.852080  11.761834   9.903940   9.585705   8.325331
    29  H    9.287175   8.144836   6.231886   5.952711   4.741138
    30  H   13.327016  11.207418   9.866924   9.983798   8.983152
    31  S    7.812165   4.203927   4.030705   5.061132   5.092818
    32  C    7.078815   4.066096   3.409826   4.252803   4.222342
    33  H    7.382488   4.861943   3.719467   4.267596   3.895374
    34  H    6.008833   3.165582   2.438528   3.355843   3.579848
    35  H    7.717696   4.567532   4.254118   5.121918   5.154244
    36  C    6.947974   3.802997   3.291582   4.202187   4.251070
    37  H    7.774578   4.580718   4.278494   5.144747   5.149166
    38  H    6.079793   2.820490   2.634958   3.701773   4.081375
    39  H    6.798168   4.281800   3.128353   3.731321   3.477500
    40  C    7.576237   3.379366   4.235245   5.509204   5.957271
    41  H    8.137698   3.872358   4.914991   6.195032   6.658602
    42  H    8.202309   4.034432   4.960098   6.210361   6.640416
    43  H    6.555662   2.302549   3.457159   4.780122   5.429689
                   11         12         13         14         15
    11  H    0.000000
    12  H    1.751638   0.000000
    13  H    5.650195   5.625954   0.000000
    14  C    3.913690   5.120779   9.303834   0.000000
    15  H    3.958326   4.985149   9.280315   1.099509   0.000000
    16  C    5.361468   6.639570  10.580685   1.528648   2.170960
    17  C    2.995839   4.549809   8.015845   1.539555   2.143730
    18  H    5.639342   6.988593  10.752036   2.160353   3.075486
    19  H    5.692807   7.090917  10.586637   2.156700   2.526309
    20  C    6.442874   7.477407  11.855021   2.563154   2.806559
    21  O    1.725817   3.321746   6.953899   2.380525   2.664173
    22  O    3.869393   5.553262   8.248088   2.412409   3.089359
    23  H    6.441282   7.356361  11.811683   2.753654   2.541734
    24  C    7.796972   8.934253  13.054303   3.884279   4.149927
    25  O    8.748937   9.832626  14.081375   4.859880   5.207391
    26  N    6.573491   7.385382  12.164164   3.039403   3.399558
    27  H    6.725666   7.620670  12.248245   3.311337   3.940099
    28  H    7.519462   8.237798  13.131263   4.004278   4.233759
    29  H    3.872827   4.830176   9.462708   1.095575   1.744089
    30  H    8.006745   9.248521  13.022894   4.180521   4.342435
    31  S    4.370570   6.047445   6.517624   5.053234   5.508945
    32  C    3.591490   5.137201   6.072188   4.964407   5.576246
    33  H    3.109587   4.704182   6.689371   4.012752   4.708881
    34  H    3.177583   4.533397   5.018774   5.444134   5.915561
    35  H    4.578328   6.037994   6.583230   5.728545   6.450110
    36  C    3.605459   5.167419   5.862739   4.726162   4.816597
    37  H    4.478015   6.005793   6.634223   4.958105   4.939410
    38  H    3.682851   5.028793   4.846430   5.590223   5.614983
    39  H    2.706354   4.322792   6.081173   3.794473   3.848295
    40  C    5.484686   6.964183   5.817633   6.848212   7.236158
    41  H    6.172465   7.658054   6.278861   7.289980   7.585695
    42  H    6.160734   7.637996   6.398713   7.381241   7.894229
    43  H    5.132183   6.433776   4.731967   7.126794   7.439888
                   16         17         18         19         20
    16  C    0.000000
    17  C    2.580926   0.000000
    18  H    1.098439   2.815996   0.000000
    19  H    1.096532   2.804345   1.746930   0.000000
    20  C    1.541012   3.954472   2.166849   2.171782   0.000000
    21  O    3.719068   1.270023   3.982233   4.009652   4.941076
    22  O    2.795895   1.259369   2.754691   2.680692   4.328299
    23  H    2.149941   4.198017   3.060816   2.515535   1.104904
    24  C    2.508982   5.084016   2.798032   2.654421   1.523947
    25  O    3.504656   6.071199   3.533786   3.775345   2.423891
    26  N    2.484643   4.465766   2.736579   3.421467   1.460104
    27  H    2.642737   4.534111   2.461563   3.621665   2.025121
    28  H    3.354755   5.462795   3.609830   4.170696   2.029621
    29  H    2.170403   2.151969   2.531840   3.070408   2.802503
    30  H    2.783590   5.199260   3.167360   2.461292   2.236961
    31  S    5.576080   3.575551   5.449076   5.270461   7.108134
    32  C    5.720840   3.477348   5.448005   5.764260   7.205541
    33  H    4.809690   2.607119   4.526969   4.994045   6.250654
    34  H    6.404747   3.959655   6.247889   6.482117   7.845336
    35  H    6.317718   4.312887   5.875753   6.373658   7.798757
    36  C    5.525210   3.349425   5.750582   5.169675   6.944506
    37  H    5.554369   3.763098   5.869865   4.999943   6.919637
    38  H    6.516535   4.204092   6.749461   6.214353   7.910155
    39  H    4.776558   2.456408   5.082018   4.571542   6.142417
    40  C    7.407976   5.344575   7.264462   7.057875   8.938162
    41  H    7.752005   5.849705   7.684600   7.258281   9.258309
    42  H    7.834328   5.890426   7.543056   7.525864   9.375265
    43  H    7.880803   5.598350   7.802272   7.614770   9.389600
                   21         22         23         24         25
    21  O    0.000000
    22  O    2.251439   0.000000
    23  H    5.054635   4.715979   0.000000
    24  C    6.202405   5.145846   2.106088   0.000000
    25  O    7.175724   6.114928   3.065190   1.212853   0.000000
    26  N    5.255007   5.032312   2.087493   2.499383   2.815032
    27  H    5.369114   4.955704   2.928310   2.758077   2.853891
    28  H    6.242538   6.008613   2.439419   2.588937   2.556747
    29  H    2.614262   3.150518   3.080480   4.244981   5.037800
    30  H    6.368510   5.088859   2.523773   1.115366   2.024036
    31  S    3.642915   2.795922   7.418975   7.821135   8.783475
    32  C    3.200339   3.089086   7.618462   8.114729   8.971759
    33  H    2.413081   2.407476   6.696307   7.228125   8.058747
    34  H    3.334777   3.834219   8.156519   8.868404   9.763574
    35  H    4.172490   3.769185   8.323861   8.602397   9.369773
    36  C    3.127572   3.047037   6.983097   7.812124   8.904894
    37  H    3.803518   3.323672   6.884585   7.640098   8.770470
    38  H    3.706723   4.041756   7.904053   8.843150   9.938952
    39  H    2.095032   2.516001   6.150078   7.148908   8.239876
    40  C    5.197680   4.631222   9.219748   9.618640  10.577125
    41  H    5.802774   5.068425   9.474936   9.839546  10.834717
    42  H    5.821190   5.080809   9.766744   9.985223  10.864373
    43  H    5.198953   5.105543   9.608718  10.202930  11.186660
                   26         27         28         29         30
    26  N    0.000000
    27  H    1.020890   0.000000
    28  H    1.020354   1.613193   0.000000
    29  H    2.709174   2.911395   3.683304   0.000000
    30  H    3.490674   3.773401   3.650581   4.779645   0.000000
    31  S    7.810718   7.676435   8.797357   5.677133   7.596142
    32  C    7.575420   7.330060   8.592762   5.245377   8.138307
    33  H    6.533710   6.284183   7.551685   4.206670   7.349230
    34  H    8.161668   7.990765   9.181454   5.653677   8.910244
    35  H    8.116667   7.748260   9.120295   5.956438   8.641948
    36  C    7.723164   7.823613   8.684556   5.430603   7.542041
    37  H    7.871288   8.034788   8.783499   5.814133   7.223167
    38  H    8.619390   8.732751   9.587210   6.196882   8.595143
    39  H    6.827695   6.975791   7.792092   4.436843   6.991671
    40  C    9.639413   9.488587  10.629716   7.434965   9.336130
    41  H   10.093076   9.999253  11.056672   7.991869   9.437671
    42  H   10.017535   9.759868  11.006039   7.908555   9.735079
    43  H   10.009260   9.900825  11.014145   7.628096   9.978185
                   31         32         33         34         35
    31  S    0.000000
    32  C    1.821543   0.000000
    33  H    2.367674   1.088607   0.000000
    34  H    2.405390   1.090924   1.793239   0.000000
    35  H    2.370273   1.093142   1.810355   1.816876   0.000000
    36  C    1.822040   2.884538   3.142659   2.922672   3.807873
    37  H    2.372125   3.805916   4.015922   3.972371   4.638539
    38  H    2.407399   3.171025   3.636967   2.842918   4.059846
    39  H    2.370392   2.889855   2.778925   2.925480   3.937037
    40  C    1.835505   2.778226   3.736698   2.890537   2.920565
    41  H    2.402142   3.747366   4.611931   3.884592   3.941025
    42  H    2.404608   2.982988   3.984564   3.245963   2.706638
    43  H    2.441845   2.890556   3.891079   2.577885   3.160098
                   36         37         38         39         40
    36  C    0.000000
    37  H    1.092020   0.000000
    38  H    1.089230   1.816029   0.000000
    39  H    1.093779   1.807433   1.798100   0.000000
    40  C    2.790826   3.234741   2.685879   3.675842   0.000000
    41  H    2.999962   3.079840   2.908854   4.035619   1.093238
    42  H    3.758499   4.205921   3.732147   4.546370   1.093115
    43  H    2.891628   3.529027   2.391764   3.701931   1.095810
                   41         42         43
    41  H    0.000000
    42  H    1.780405   0.000000
    43  H    1.801322   1.809344   0.000000
 Symmetry turned off by external request.
 Stoichiometry    C12H22N4O4S
 Framework group  C1[X(C12H22N4O4S)]
 Deg. of freedom   123
 Full point group                 C1      NOp   1
 Rotational constants (GHZ):      0.4772313      0.1007007      0.0859099
 Standard basis: 6-31G(d) (6D, 7F)
   363 basis functions,   700 primitive gaussians,   363 cartesian basis functions
    85 alpha electrons       85 beta electrons
       nuclear repulsion energy      1829.7269456058 Hartrees.
 NAtoms=   43 NActive=   43 NUniq=   43 SFac= 1.00D+00 NAtFMM=   60 NAOKFM=F Big=F
 Integral buffers will be    131072 words long.
 Raffenetti 2 integral format.
 Two-electron integral symmetry is turned off.
 One-electron integrals computed using PRISM.
 NBasis=   363 RedAO= T EigKep=  1.21D-03  NBF=   363
 NBsUse=   363 1.00D-06 EigRej= -1.00D+00 NBFU=   363
 ExpMin= 1.17D-01 ExpMax= 2.19D+04 ExpMxC= 3.30D+03 IAcc=1 IRadAn=         1 AccDes= 0.00D+00
 Harris functional with IExCor=  402 and IRadAn=       1 diagonalized for initial guess.
 HarFok:  IExCor=  402 AccDes= 0.00D+00 IRadAn=         1 IDoV= 1 UseB2=F ITyADJ=14
 ICtDFT=  3500011 ScaDFX=  1.000000  1.000000  1.000000  1.000000
 FoFCou: FMM=F IPFlag=           0 FMFlag=      100000 FMFlg1=           0
         NFxFlg=           0 DoJE=T BraDBF=F KetDBF=T FulRan=T
         wScrn=  0.000000 ICntrl=     500 IOpCl=  0 I1Cent=   200000004 NGrid=           0
         NMat0=    1 NMatS0=      1 NMatT0=    0 NMatD0=    1 NMtDS0=    0 NMtDT0=    0
 Symmetry not used in FoFCou.
 Requested convergence on RMS density matrix=1.00D-08 within 128 cycles.
 Requested convergence on MAX density matrix=1.00D-06.
 Requested convergence on             energy=1.00D-06.
 No special actions if energy rises.
 Integral accuracy reduced to 1.0D-05 until final iterations.
 Initial convergence to 1.0D-05 achieved.  Increase integral accuracy.
 SCF Done:  E(RB3LYP) =  -1388.60401344     A.U. after   16 cycles
            NFock= 16  Conv=0.40D-08     -V/T= 2.0076

 **********************************************************************

            Population analysis using the SCF density.

 **********************************************************************

 Alpha  occ. eigenvalues --  -88.97463 -19.13698 -19.10593 -19.05644 -19.05583
 Alpha  occ. eigenvalues --  -14.39497 -14.34674 -14.31174 -14.29907 -10.30830
 Alpha  occ. eigenvalues --  -10.28306 -10.26585 -10.25750 -10.23759 -10.23045
 Alpha  occ. eigenvalues --  -10.21766 -10.21350 -10.20536 -10.20444 -10.16416
 Alpha  occ. eigenvalues --  -10.14765  -8.03072  -5.99368  -5.99318  -5.98750
 Alpha  occ. eigenvalues --   -1.04275  -1.03186  -0.98695  -0.96894  -0.94368
 Alpha  occ. eigenvalues --   -0.89713  -0.87270  -0.87202  -0.86822  -0.78633
 Alpha  occ. eigenvalues --   -0.75168  -0.72842  -0.72527  -0.68271  -0.66644
 Alpha  occ. eigenvalues --   -0.65124  -0.61960  -0.59364  -0.57341  -0.55921
 Alpha  occ. eigenvalues --   -0.54843  -0.52787  -0.49460  -0.48295  -0.47788
 Alpha  occ. eigenvalues --   -0.47684  -0.47260  -0.46572  -0.45486  -0.45170
 Alpha  occ. eigenvalues --   -0.44842  -0.43790  -0.43532  -0.43283  -0.43136
 Alpha  occ. eigenvalues --   -0.42103  -0.41159  -0.40765  -0.39413  -0.39209
 Alpha  occ. eigenvalues --   -0.39071  -0.38465  -0.37587  -0.36838  -0.36656
 Alpha  occ. eigenvalues --   -0.34993  -0.34100  -0.33218  -0.32277  -0.31861
 Alpha  occ. eigenvalues --   -0.30420  -0.26911  -0.25962  -0.25317  -0.24480
 Alpha  occ. eigenvalues --   -0.23695  -0.21994  -0.21536  -0.20213  -0.19736
 Alpha virt. eigenvalues --   -0.03302  -0.00695   0.01626   0.01747   0.01950
 Alpha virt. eigenvalues --    0.05976   0.06492   0.08406   0.08890   0.09492
 Alpha virt. eigenvalues --    0.10598   0.11371   0.11630   0.12962   0.13093
 Alpha virt. eigenvalues --    0.13674   0.14681   0.14711   0.15576   0.15704
 Alpha virt. eigenvalues --    0.16414   0.17732   0.18388   0.18834   0.19105
 Alpha virt. eigenvalues --    0.20040   0.20617   0.21178   0.21960   0.23806
 Alpha virt. eigenvalues --    0.24512   0.24700   0.25882   0.26238   0.28432
 Alpha virt. eigenvalues --    0.29764   0.30411   0.32284   0.34166   0.34387
 Alpha virt. eigenvalues --    0.35029   0.35995   0.36412   0.36910   0.39583
 Alpha virt. eigenvalues --    0.40586   0.42334   0.42725   0.44735   0.46372
 Alpha virt. eigenvalues --    0.48227   0.49434   0.49594   0.51530   0.53803
 Alpha virt. eigenvalues --    0.54811   0.55058   0.56331   0.56959   0.57338
 Alpha virt. eigenvalues --    0.58602   0.58836   0.58951   0.59135   0.60327
 Alpha virt. eigenvalues --    0.61151   0.62239   0.63164   0.64068   0.64790
 Alpha virt. eigenvalues --    0.64973   0.65594   0.66369   0.66936   0.67871
 Alpha virt. eigenvalues --    0.68161   0.69176   0.69557   0.70279   0.71434
 Alpha virt. eigenvalues --    0.73918   0.74055   0.75273   0.75924   0.76318
 Alpha virt. eigenvalues --    0.76547   0.76878   0.78452   0.78913   0.80433
 Alpha virt. eigenvalues --    0.80901   0.81878   0.82447   0.83694   0.84816
 Alpha virt. eigenvalues --    0.84941   0.86093   0.86153   0.86850   0.87503
 Alpha virt. eigenvalues --    0.87751   0.88468   0.88830   0.89358   0.90265
 Alpha virt. eigenvalues --    0.90699   0.91304   0.91794   0.93427   0.94208
 Alpha virt. eigenvalues --    0.94761   0.95394   0.95953   0.96297   0.96504
 Alpha virt. eigenvalues --    0.97817   0.98362   0.98806   0.99274   1.00658
 Alpha virt. eigenvalues --    1.01670   1.02597   1.03565   1.04610   1.05883
 Alpha virt. eigenvalues --    1.06488   1.06945   1.10644   1.11197   1.12011
 Alpha virt. eigenvalues --    1.12082   1.13377   1.14551   1.16780   1.20202
 Alpha virt. eigenvalues --    1.21268   1.22178   1.24575   1.25552   1.27841
 Alpha virt. eigenvalues --    1.31680   1.32565   1.33107   1.33904   1.34287
 Alpha virt. eigenvalues --    1.37616   1.38349   1.39498   1.41096   1.42513
 Alpha virt. eigenvalues --    1.43489   1.44839   1.45193   1.46823   1.48844
 Alpha virt. eigenvalues --    1.50993   1.52295   1.53863   1.55537   1.57435
 Alpha virt. eigenvalues --    1.61256   1.62030   1.62494   1.64136   1.64525
 Alpha virt. eigenvalues --    1.64730   1.67628   1.67959   1.69100   1.70117
 Alpha virt. eigenvalues --    1.71294   1.72845   1.74543   1.76397   1.77138
 Alpha virt. eigenvalues --    1.79108   1.79507   1.79672   1.80097   1.82923
 Alpha virt. eigenvalues --    1.83110   1.83288   1.86769   1.87025   1.88275
 Alpha virt. eigenvalues --    1.89393   1.90219   1.91357   1.93000   1.94064
 Alpha virt. eigenvalues --    1.95593   1.96728   1.98257   1.99477   2.00812
 Alpha virt. eigenvalues --    2.02393   2.02823   2.03239   2.04294   2.04518
 Alpha virt. eigenvalues --    2.06004   2.08173   2.09156   2.12013   2.12238
 Alpha virt. eigenvalues --    2.17159   2.18123   2.18238   2.19150   2.19451
 Alpha virt. eigenvalues --    2.20199   2.20794   2.21813   2.22413   2.23343
 Alpha virt. eigenvalues --    2.24053   2.25174   2.25577   2.26642   2.28418
 Alpha virt. eigenvalues --    2.29084   2.30009   2.33583   2.35858   2.38817
 Alpha virt. eigenvalues --    2.42703   2.42984   2.43842   2.45781   2.47413
 Alpha virt. eigenvalues --    2.52503   2.53539   2.55166   2.59338   2.59786
 Alpha virt. eigenvalues --    2.61166   2.63326   2.65134   2.66462   2.69087
 Alpha virt. eigenvalues --    2.71025   2.72623   2.74532   2.74704   2.79956
 Alpha virt. eigenvalues --    2.80742   2.84210   2.89670   2.93188   2.99411
 Alpha virt. eigenvalues --    3.01086   3.01418   3.03022   3.06409   3.20798
 Alpha virt. eigenvalues --    3.24754   3.42162   3.76540   3.86318   3.90433
 Alpha virt. eigenvalues --    3.94208   3.96249   4.01951   4.10043   4.13688
 Alpha virt. eigenvalues --    4.16564   4.21519   4.22000   4.23088   4.23786
 Alpha virt. eigenvalues --    4.28707   4.29345   4.33453   4.41364   4.52640
 Alpha virt. eigenvalues --    4.53604   4.59818   4.64730
          Condensed to atoms (all electrons):
               1          2          3          4          5          6
     1  C    4.221892  -0.025633  -0.030335   0.234518   0.000820   0.002099
     2  C   -0.025633   5.083506   0.601722  -0.031585   0.352028  -0.034083
     3  C   -0.030335   0.601722   4.730195   0.321737  -0.040736   0.366463
     4  N    0.234518  -0.031585   0.321737   7.071546   0.003599  -0.046003
     5  H    0.000820   0.352028  -0.040736   0.003599   0.567525  -0.004052
     6  H    0.002099  -0.034083   0.366463  -0.046003  -0.004052   0.547350
     7  O    0.559359   0.000617   0.002189  -0.099924   0.000006  -0.000108
     8  N    0.345398  -0.053710  -0.019105  -0.102572   0.004109  -0.000352
     9  C   -0.018870   0.413739  -0.026517  -0.020740  -0.024923   0.003282
    10  N    0.003066  -0.089658   0.003984   0.000179  -0.004410  -0.000137
    11  H   -0.000317   0.004446  -0.000039   0.000021  -0.000174   0.000002
    12  H   -0.000122  -0.002167   0.000215   0.000025   0.003485  -0.000002
    13  H   -0.006418   0.003679  -0.026896   0.287743  -0.000100  -0.006008
    14  C    0.000000  -0.000000   0.000000  -0.000000   0.000000  -0.000000
    15  H    0.000000  -0.000000  -0.000000   0.000000   0.000000   0.000000
    16  C   -0.000000  -0.000000   0.000000   0.000000  -0.000000   0.000000
    17  C    0.000000  -0.000000  -0.000000  -0.000000   0.000000   0.000000
    18  H    0.000000   0.000000  -0.000000   0.000000  -0.000000   0.000000
    19  H    0.000000   0.000000  -0.000000  -0.000000  -0.000000   0.000000
    20  C    0.000000   0.000000  -0.000000  -0.000000   0.000000  -0.000000
    21  O    0.000014  -0.000011   0.000000  -0.000000   0.000000  -0.000000
    22  O   -0.000000  -0.000000   0.000000   0.000000   0.000000  -0.000000
    23  H   -0.000000   0.000000   0.000000  -0.000000   0.000000  -0.000000
    24  C   -0.000000  -0.000000   0.000000   0.000000   0.000000   0.000000
    25  O    0.000000   0.000000   0.000000   0.000000   0.000000   0.000000
    26  N    0.000000  -0.000000  -0.000000   0.000000   0.000000  -0.000000
    27  H   -0.000000  -0.000000   0.000000  -0.000000  -0.000000   0.000000
    28  H    0.000000   0.000000  -0.000000  -0.000000  -0.000000  -0.000000
    29  H   -0.000000  -0.000000   0.000000   0.000000  -0.000000   0.000000
    30  H    0.000000   0.000000  -0.000000  -0.000000   0.000000   0.000000
    31  S    0.000266  -0.000003  -0.000000   0.000008   0.000000   0.000000
    32  C   -0.000408  -0.000024   0.000000  -0.000016   0.000000  -0.000000
    33  H    0.000017   0.000001  -0.000000   0.000000  -0.000000  -0.000000
    34  H    0.001730   0.000153  -0.000001   0.000148  -0.000002   0.000000
    35  H    0.000014   0.000000  -0.000000   0.000000  -0.000000   0.000000
    36  C   -0.001117   0.000002   0.000001  -0.000011   0.000000  -0.000000
    37  H    0.000019   0.000000   0.000000   0.000000  -0.000000   0.000000
    38  H    0.002924   0.000030  -0.000008   0.000088  -0.000000   0.000000
    39  H    0.000055   0.000009  -0.000001   0.000001  -0.000000  -0.000000
    40  C   -0.000367   0.000000   0.000000  -0.000021   0.000000  -0.000000
    41  H    0.000005   0.000000  -0.000000   0.000000  -0.000000   0.000000
    42  H    0.000006  -0.000000  -0.000000   0.000000  -0.000000   0.000000
    43  H    0.000592  -0.000001  -0.000004   0.000199  -0.000000   0.000000
               7          8          9         10         11         12
     1  C    0.559359   0.345398  -0.018870   0.003066  -0.000317  -0.000122
     2  C    0.000617  -0.053710   0.413739  -0.089658   0.004446  -0.002167
     3  C    0.002189  -0.019105  -0.026517   0.003984  -0.000039   0.000215
     4  N   -0.099924  -0.102572  -0.020740   0.000179   0.000021   0.000025
     5  H    0.000006   0.004109  -0.024923  -0.004410  -0.000174   0.003485
     6  H   -0.000108  -0.000352   0.003282  -0.000137   0.000002  -0.000002
     7  O    8.151693  -0.091946   0.000495  -0.000046  -0.000018   0.000001
     8  N   -0.091946   7.127984   0.447445  -0.086495   0.003067   0.004060
     9  C    0.000495   0.447445   4.360950   0.348666  -0.004546  -0.029292
    10  N   -0.000046  -0.086495   0.348666   7.141821   0.202084   0.316476
    11  H   -0.000018   0.003067  -0.004546   0.202084   0.295243  -0.013218
    12  H    0.000001   0.004060  -0.029292   0.316476  -0.013218   0.388088
    13  H    0.010249   0.005940   0.000664   0.000021  -0.000001  -0.000001
    14  C    0.000000  -0.000001  -0.000002  -0.000137   0.001049   0.000006
    15  H    0.000000  -0.000000   0.000000   0.000002  -0.000008  -0.000000
    16  C    0.000000   0.000000   0.000000   0.000000  -0.000012  -0.000000
    17  C    0.000000  -0.000090   0.000001   0.000983  -0.005927  -0.000020
    18  H   -0.000000   0.000000  -0.000000   0.000000  -0.000000  -0.000000
    19  H   -0.000000   0.000000  -0.000000   0.000000  -0.000000  -0.000000
    20  C    0.000000  -0.000000  -0.000000  -0.000000   0.000000   0.000000
    21  O    0.000000   0.000033  -0.000518  -0.034187   0.085127   0.000435
    22  O   -0.000000  -0.000000   0.000002  -0.000015   0.000419  -0.000000
    23  H    0.000000   0.000000  -0.000000  -0.000000   0.000000   0.000000
    24  C   -0.000000  -0.000000   0.000000   0.000000  -0.000000  -0.000000
    25  O    0.000000   0.000000  -0.000000  -0.000000   0.000000   0.000000
    26  N   -0.000000  -0.000000   0.000000  -0.000000   0.000000   0.000000
    27  H    0.000000  -0.000000   0.000000   0.000000  -0.000000  -0.000000
    28  H    0.000000   0.000000  -0.000000  -0.000000   0.000000   0.000000
    29  H    0.000000  -0.000000   0.000000  -0.000002   0.000026  -0.000000
    30  H   -0.000000  -0.000000  -0.000000  -0.000000   0.000000   0.000000
    31  S    0.000940  -0.000473  -0.000069  -0.000042   0.000007   0.000001
    32  C   -0.000321  -0.009899  -0.000241   0.000319  -0.000282  -0.000003
    33  H    0.000005   0.000013  -0.000044  -0.000028   0.000524   0.000004
    34  H    0.000961   0.021144   0.000727  -0.000688   0.000443   0.000008
    35  H   -0.000005   0.000219   0.000003  -0.000002   0.000022   0.000000
    36  C   -0.002383  -0.000613   0.000288  -0.000182  -0.000213  -0.000005
    37  H    0.000007   0.000305   0.000005  -0.000003   0.000018   0.000000
    38  H    0.008380   0.000789   0.000270  -0.000145   0.000110   0.000002
    39  H   -0.000002   0.000181  -0.000145   0.000510   0.001200   0.000013
    40  C   -0.012040   0.000186  -0.000005  -0.000000   0.000002  -0.000000
    41  H    0.000079   0.000001  -0.000000   0.000000  -0.000000   0.000000
    42  H    0.000096  -0.000002   0.000000   0.000000  -0.000000   0.000000
    43  H    0.035463  -0.000819   0.000030  -0.000000   0.000000   0.000000
              13         14         15         16         17         18
     1  C   -0.006418   0.000000   0.000000  -0.000000   0.000000   0.000000
     2  C    0.003679  -0.000000  -0.000000  -0.000000  -0.000000   0.000000
     3  C   -0.026896   0.000000  -0.000000   0.000000  -0.000000  -0.000000
     4  N    0.287743  -0.000000   0.000000   0.000000  -0.000000   0.000000
     5  H   -0.000100   0.000000   0.000000  -0.000000   0.000000  -0.000000
     6  H   -0.006008  -0.000000   0.000000   0.000000   0.000000   0.000000
     7  O    0.010249   0.000000   0.000000   0.000000   0.000000  -0.000000
     8  N    0.005940  -0.000001  -0.000000   0.000000  -0.000090   0.000000
     9  C    0.000664  -0.000002   0.000000   0.000000   0.000001  -0.000000
    10  N    0.000021  -0.000137   0.000002   0.000000   0.000983   0.000000
    11  H   -0.000001   0.001049  -0.000008  -0.000012  -0.005927  -0.000000
    12  H   -0.000001   0.000006  -0.000000  -0.000000  -0.000020  -0.000000
    13  H    0.387531   0.000000  -0.000000  -0.000000   0.000000   0.000000
    14  C    0.000000   5.306946   0.353416   0.308017   0.322045  -0.039501
    15  H   -0.000000   0.353416   0.597818  -0.039786  -0.021753   0.005444
    16  C   -0.000000   0.308017  -0.039786   5.108973  -0.030424   0.370828
    17  C    0.000000   0.322045  -0.021753  -0.030424   4.315764  -0.001364
    18  H    0.000000  -0.039501   0.005444   0.370828  -0.001364   0.592102
    19  H   -0.000000  -0.036055  -0.004332   0.369824  -0.001843  -0.032579
    20  C    0.000000  -0.027592  -0.003238   0.309362   0.003614  -0.041764
    21  O    0.000000  -0.094473   0.001934   0.003868   0.376415   0.000067
    22  O   -0.000000  -0.105999   0.001105   0.010576   0.459603   0.004213
    23  H    0.000000  -0.007523   0.005456  -0.036039  -0.000055   0.006195
    24  C   -0.000000   0.002683   0.000035  -0.037024  -0.000006  -0.003716
    25  O    0.000000  -0.000032  -0.000000   0.000194   0.000000   0.000418
    26  N    0.000000  -0.004191   0.000004  -0.046475   0.000049  -0.005335
    27  H   -0.000000  -0.000510   0.000077  -0.005949  -0.000072   0.006966
    28  H    0.000000   0.000111  -0.000023   0.005976   0.000004  -0.000001
    29  H   -0.000000   0.359685  -0.030363  -0.034401  -0.023685  -0.004294
    30  H    0.000000  -0.000403   0.000007   0.003077  -0.000002   0.000680
    31  S   -0.000000   0.001626  -0.000047  -0.000078  -0.000522  -0.000017
    32  C    0.000001  -0.000264  -0.000001   0.000012  -0.002516  -0.000001
    33  H   -0.000000   0.000768   0.000008  -0.000052   0.005847   0.000007
    34  H   -0.000008   0.000000   0.000000   0.000000  -0.000047   0.000000
    35  H   -0.000000   0.000005  -0.000000  -0.000000   0.000082  -0.000000
    36  C    0.000001  -0.000427   0.000042   0.000022  -0.002387   0.000000
    37  H   -0.000000   0.000011  -0.000001  -0.000002   0.000004   0.000000
    38  H   -0.000010   0.000006  -0.000001  -0.000000   0.000182  -0.000000
    39  H    0.000000   0.000830  -0.000100  -0.000059   0.004743  -0.000000
    40  C    0.000002   0.000001  -0.000000  -0.000000   0.000014  -0.000000
    41  H   -0.000000   0.000000  -0.000000  -0.000000   0.000001  -0.000000
    42  H   -0.000000   0.000000  -0.000000  -0.000000   0.000000  -0.000000
    43  H   -0.000015  -0.000000   0.000000   0.000000  -0.000001   0.000000
              19         20         21         22         23         24
     1  C    0.000000   0.000000   0.000014  -0.000000  -0.000000  -0.000000
     2  C    0.000000   0.000000  -0.000011  -0.000000   0.000000  -0.000000
     3  C   -0.000000  -0.000000   0.000000   0.000000   0.000000   0.000000
     4  N   -0.000000  -0.000000  -0.000000   0.000000  -0.000000   0.000000
     5  H   -0.000000   0.000000   0.000000   0.000000   0.000000   0.000000
     6  H    0.000000  -0.000000  -0.000000  -0.000000  -0.000000   0.000000
     7  O   -0.000000   0.000000   0.000000  -0.000000   0.000000  -0.000000
     8  N    0.000000  -0.000000   0.000033  -0.000000   0.000000  -0.000000
     9  C   -0.000000  -0.000000  -0.000518   0.000002  -0.000000   0.000000
    10  N    0.000000  -0.000000  -0.034187  -0.000015  -0.000000   0.000000
    11  H   -0.000000   0.000000   0.085127   0.000419   0.000000  -0.000000
    12  H   -0.000000   0.000000   0.000435  -0.000000   0.000000  -0.000000
    13  H   -0.000000   0.000000   0.000000  -0.000000   0.000000  -0.000000
    14  C   -0.036055  -0.027592  -0.094473  -0.105999  -0.007523   0.002683
    15  H   -0.004332  -0.003238   0.001934   0.001105   0.005456   0.000035
    16  C    0.369824   0.309362   0.003868   0.010576  -0.036039  -0.037024
    17  C   -0.001843   0.003614   0.376415   0.459603  -0.000055  -0.000006
    18  H   -0.032579  -0.041764   0.000067   0.004213   0.006195  -0.003716
    19  H    0.583778  -0.041600   0.000085   0.006512  -0.001614  -0.001745
    20  C   -0.041600   5.200226  -0.000028   0.000692   0.347514   0.276219
    21  O    0.000085  -0.000028   8.336880  -0.079773  -0.000003   0.000000
    22  O    0.006512   0.000692  -0.079773   8.256778   0.000001  -0.000004
    23  H   -0.001614   0.347514  -0.000003   0.000001   0.622422  -0.048785
    24  C   -0.001745   0.276219   0.000000  -0.000004  -0.048785   4.733002
    25  O    0.000091  -0.079073  -0.000000  -0.000000   0.000859   0.572866
    26  N    0.004024   0.323950  -0.000000  -0.000004  -0.044728  -0.044761
    27  H   -0.000018  -0.048610   0.000000  -0.000001   0.007612  -0.001757
    28  H   -0.000194  -0.051593  -0.000000   0.000000  -0.001322  -0.000418
    29  H    0.005092  -0.005675   0.003084   0.001363  -0.000602   0.000262
    30  H    0.005655  -0.109430  -0.000000  -0.000002   0.006971   0.313052
    31  S   -0.000025  -0.000001  -0.004768   0.052867  -0.000000   0.000000
    32  C    0.000002   0.000000  -0.001945  -0.014679  -0.000000  -0.000000
    33  H   -0.000004   0.000000   0.014606   0.010634   0.000000  -0.000000
    34  H   -0.000000  -0.000000  -0.000866   0.000330  -0.000000   0.000000
    35  H   -0.000000   0.000000   0.000310   0.000182   0.000000  -0.000000
    36  C    0.000000  -0.000000  -0.023376  -0.000913   0.000000   0.000000
    37  H    0.000001   0.000000   0.000363  -0.000092   0.000000  -0.000000
    38  H    0.000000  -0.000000  -0.000158   0.000416   0.000000   0.000000
    39  H    0.000004   0.000001   0.052826  -0.007169  -0.000000  -0.000000
    40  C   -0.000000  -0.000000   0.000000   0.000556  -0.000000   0.000000
    41  H   -0.000000   0.000000   0.000000   0.000002   0.000000  -0.000000
    42  H   -0.000000   0.000000   0.000000   0.000002  -0.000000  -0.000000
    43  H    0.000000   0.000000   0.000000  -0.000002  -0.000000  -0.000000
              25         26         27         28         29         30
     1  C    0.000000   0.000000  -0.000000   0.000000  -0.000000   0.000000
     2  C    0.000000  -0.000000  -0.000000   0.000000  -0.000000   0.000000
     3  C    0.000000  -0.000000   0.000000  -0.000000   0.000000  -0.000000
     4  N    0.000000   0.000000  -0.000000  -0.000000   0.000000  -0.000000
     5  H    0.000000   0.000000  -0.000000  -0.000000  -0.000000   0.000000
     6  H    0.000000  -0.000000   0.000000  -0.000000   0.000000   0.000000
     7  O    0.000000  -0.000000   0.000000   0.000000   0.000000  -0.000000
     8  N    0.000000  -0.000000  -0.000000   0.000000  -0.000000  -0.000000
     9  C   -0.000000   0.000000   0.000000  -0.000000   0.000000  -0.000000
    10  N   -0.000000  -0.000000   0.000000  -0.000000  -0.000002  -0.000000
    11  H    0.000000   0.000000  -0.000000   0.000000   0.000026   0.000000
    12  H    0.000000   0.000000  -0.000000   0.000000  -0.000000   0.000000
    13  H    0.000000   0.000000  -0.000000   0.000000  -0.000000   0.000000
    14  C   -0.000032  -0.004191  -0.000510   0.000111   0.359685  -0.000403
    15  H   -0.000000   0.000004   0.000077  -0.000023  -0.030363   0.000007
    16  C    0.000194  -0.046475  -0.005949   0.005976  -0.034401   0.003077
    17  C    0.000000   0.000049  -0.000072   0.000004  -0.023685  -0.000002
    18  H    0.000418  -0.005335   0.006966  -0.000001  -0.004294   0.000680
    19  H    0.000091   0.004024  -0.000018  -0.000194   0.005092   0.005655
    20  C   -0.079073   0.323950  -0.048610  -0.051593  -0.005675  -0.109430
    21  O   -0.000000  -0.000000   0.000000  -0.000000   0.003084  -0.000000
    22  O   -0.000000  -0.000004  -0.000001   0.000000   0.001363  -0.000002
    23  H    0.000859  -0.044728   0.007612  -0.001322  -0.000602   0.006971
    24  C    0.572866  -0.044761  -0.001757  -0.000418   0.000262   0.313052
    25  O    7.960370  -0.007784   0.003606   0.010915   0.000001  -0.063191
    26  N   -0.007784   6.888432   0.309548   0.311772   0.009387   0.006033
    27  H    0.003606   0.309548   0.464885  -0.032068  -0.000251   0.000321
    28  H    0.010915   0.311772  -0.032068   0.453351  -0.000177   0.000886
    29  H    0.000001   0.009387  -0.000251  -0.000177   0.556102  -0.000017
    30  H   -0.063191   0.006033   0.000321   0.000886  -0.000017   0.741831
    31  S    0.000000   0.000000  -0.000000  -0.000000  -0.000029   0.000000
    32  C   -0.000000  -0.000000   0.000000   0.000000   0.000018  -0.000000
    33  H    0.000000   0.000000  -0.000000  -0.000000  -0.000083   0.000000
    34  H    0.000000   0.000000  -0.000000  -0.000000  -0.000000   0.000000
    35  H    0.000000   0.000000  -0.000000   0.000000  -0.000000   0.000000
    36  C   -0.000000  -0.000000   0.000000  -0.000000   0.000004  -0.000000
    37  H    0.000000   0.000000  -0.000000   0.000000  -0.000000   0.000000
    38  H    0.000000   0.000000   0.000000  -0.000000   0.000000  -0.000000
    39  H    0.000000   0.000000  -0.000000   0.000000  -0.000007   0.000000
    40  C    0.000000   0.000000  -0.000000  -0.000000  -0.000000   0.000000
    41  H   -0.000000   0.000000  -0.000000   0.000000  -0.000000   0.000000
    42  H   -0.000000   0.000000  -0.000000   0.000000  -0.000000   0.000000
    43  H   -0.000000  -0.000000  -0.000000   0.000000   0.000000  -0.000000
              31         32         33         34         35         36
     1  C    0.000266  -0.000408   0.000017   0.001730   0.000014  -0.001117
     2  C   -0.000003  -0.000024   0.000001   0.000153   0.000000   0.000002
     3  C   -0.000000   0.000000  -0.000000  -0.000001  -0.000000   0.000001
     4  N    0.000008  -0.000016   0.000000   0.000148   0.000000  -0.000011
     5  H    0.000000   0.000000  -0.000000  -0.000002  -0.000000   0.000000
     6  H    0.000000  -0.000000  -0.000000   0.000000   0.000000  -0.000000
     7  O    0.000940  -0.000321   0.000005   0.000961  -0.000005  -0.002383
     8  N   -0.000473  -0.009899   0.000013   0.021144   0.000219  -0.000613
     9  C   -0.000069  -0.000241  -0.000044   0.000727   0.000003   0.000288
    10  N   -0.000042   0.000319  -0.000028  -0.000688  -0.000002  -0.000182
    11  H    0.000007  -0.000282   0.000524   0.000443   0.000022  -0.000213
    12  H    0.000001  -0.000003   0.000004   0.000008   0.000000  -0.000005
    13  H   -0.000000   0.000001  -0.000000  -0.000008  -0.000000   0.000001
    14  C    0.001626  -0.000264   0.000768   0.000000   0.000005  -0.000427
    15  H   -0.000047  -0.000001   0.000008   0.000000  -0.000000   0.000042
    16  C   -0.000078   0.000012  -0.000052   0.000000  -0.000000   0.000022
    17  C   -0.000522  -0.002516   0.005847  -0.000047   0.000082  -0.002387
    18  H   -0.000017  -0.000001   0.000007   0.000000  -0.000000   0.000000
    19  H   -0.000025   0.000002  -0.000004  -0.000000  -0.000000   0.000000
    20  C   -0.000001   0.000000   0.000000  -0.000000   0.000000  -0.000000
    21  O   -0.004768  -0.001945   0.014606  -0.000866   0.000310  -0.023376
    22  O    0.052867  -0.014679   0.010634   0.000330   0.000182  -0.000913
    23  H   -0.000000  -0.000000   0.000000  -0.000000   0.000000   0.000000
    24  C    0.000000  -0.000000  -0.000000   0.000000  -0.000000   0.000000
    25  O    0.000000  -0.000000   0.000000   0.000000   0.000000  -0.000000
    26  N    0.000000  -0.000000   0.000000   0.000000   0.000000  -0.000000
    27  H   -0.000000   0.000000  -0.000000  -0.000000  -0.000000   0.000000
    28  H   -0.000000   0.000000  -0.000000  -0.000000   0.000000  -0.000000
    29  H   -0.000029   0.000018  -0.000083  -0.000000  -0.000000   0.000004
    30  H    0.000000  -0.000000   0.000000   0.000000   0.000000  -0.000000
    31  S   14.917220   0.264297  -0.026058  -0.029836  -0.036852   0.261109
    32  C    0.264297   5.415357   0.341721   0.346584   0.343234  -0.024412
    33  H   -0.026058   0.341721   0.408848  -0.015030  -0.012783  -0.001428
    34  H   -0.029836   0.346584  -0.015030   0.451735  -0.020687  -0.003915
    35  H   -0.036852   0.343234  -0.012783  -0.020687   0.543927   0.002270
    36  C    0.261109  -0.024412  -0.001428  -0.003915   0.002270   5.453571
    37  H   -0.035157   0.002253   0.000045   0.000062  -0.000045   0.351422
    38  H   -0.033416  -0.001952  -0.000109   0.001889  -0.000000   0.346576
    39  H   -0.026459  -0.002438   0.000858  -0.000111   0.000160   0.311470
    40  C    0.207769  -0.037240   0.002897  -0.004844  -0.000068  -0.033699
    41  H   -0.031616   0.002725  -0.000059   0.000022   0.000030  -0.000084
    42  H   -0.031927  -0.001009   0.000003  -0.000231   0.002631   0.002824
    43  H   -0.019576  -0.004357   0.000024   0.004973  -0.000286  -0.006106
              37         38         39         40         41         42
     1  C    0.000019   0.002924   0.000055  -0.000367   0.000005   0.000006
     2  C    0.000000   0.000030   0.000009   0.000000   0.000000  -0.000000
     3  C    0.000000  -0.000008  -0.000001   0.000000  -0.000000  -0.000000
     4  N    0.000000   0.000088   0.000001  -0.000021   0.000000   0.000000
     5  H   -0.000000  -0.000000  -0.000000   0.000000  -0.000000  -0.000000
     6  H    0.000000   0.000000  -0.000000  -0.000000   0.000000   0.000000
     7  O    0.000007   0.008380  -0.000002  -0.012040   0.000079   0.000096
     8  N    0.000305   0.000789   0.000181   0.000186   0.000001  -0.000002
     9  C    0.000005   0.000270  -0.000145  -0.000005  -0.000000   0.000000
    10  N   -0.000003  -0.000145   0.000510  -0.000000   0.000000   0.000000
    11  H    0.000018   0.000110   0.001200   0.000002  -0.000000  -0.000000
    12  H    0.000000   0.000002   0.000013  -0.000000   0.000000   0.000000
    13  H   -0.000000  -0.000010   0.000000   0.000002  -0.000000  -0.000000
    14  C    0.000011   0.000006   0.000830   0.000001   0.000000   0.000000
    15  H   -0.000001  -0.000001  -0.000100  -0.000000  -0.000000  -0.000000
    16  C   -0.000002  -0.000000  -0.000059  -0.000000  -0.000000  -0.000000
    17  C    0.000004   0.000182   0.004743   0.000014   0.000001   0.000000
    18  H    0.000000  -0.000000  -0.000000  -0.000000  -0.000000  -0.000000
    19  H    0.000001   0.000000   0.000004  -0.000000  -0.000000  -0.000000
    20  C    0.000000  -0.000000   0.000001  -0.000000   0.000000   0.000000
    21  O    0.000363  -0.000158   0.052826   0.000000   0.000000   0.000000
    22  O   -0.000092   0.000416  -0.007169   0.000556   0.000002   0.000002
    23  H    0.000000   0.000000  -0.000000  -0.000000   0.000000  -0.000000
    24  C   -0.000000   0.000000  -0.000000   0.000000  -0.000000  -0.000000
    25  O    0.000000   0.000000   0.000000   0.000000  -0.000000  -0.000000
    26  N    0.000000   0.000000   0.000000   0.000000   0.000000   0.000000
    27  H   -0.000000   0.000000  -0.000000  -0.000000  -0.000000  -0.000000
    28  H    0.000000  -0.000000   0.000000  -0.000000   0.000000   0.000000
    29  H   -0.000000   0.000000  -0.000007  -0.000000  -0.000000  -0.000000
    30  H    0.000000  -0.000000   0.000000   0.000000   0.000000   0.000000
    31  S   -0.035157  -0.033416  -0.026459   0.207769  -0.031616  -0.031927
    32  C    0.002253  -0.001952  -0.002438  -0.037240   0.002725  -0.001009
    33  H    0.000045  -0.000109   0.000858   0.002897  -0.000059   0.000003
    34  H    0.000062   0.001889  -0.000111  -0.004844   0.000022  -0.000231
    35  H   -0.000045  -0.000000   0.000160  -0.000068   0.000030   0.002631
    36  C    0.351422   0.346576   0.311470  -0.033699  -0.000084   0.002824
    37  H    0.524262  -0.023165  -0.011039   0.000582   0.001016  -0.000058
    38  H   -0.023165   0.485085  -0.015306  -0.005795  -0.000234   0.000239
    39  H   -0.011039  -0.015306   0.404166   0.002003   0.000007  -0.000057
    40  C    0.000582  -0.005795   0.002003   5.480752   0.363857   0.360043
    41  H    0.001016  -0.000234   0.000007   0.363857   0.508004  -0.021874
    42  H   -0.000058   0.000239  -0.000057   0.360043  -0.021874   0.514189
    43  H   -0.000049   0.005622   0.000098   0.326404  -0.018125  -0.017423
              43
     1  C    0.000592
     2  C   -0.000001
     3  C   -0.000004
     4  N    0.000199
     5  H   -0.000000
     6  H    0.000000
     7  O    0.035463
     8  N   -0.000819
     9  C    0.000030
    10  N   -0.000000
    11  H    0.000000
    12  H    0.000000
    13  H   -0.000015
    14  C   -0.000000
    15  H    0.000000
    16  C    0.000000
    17  C   -0.000001
    18  H    0.000000
    19  H    0.000000
    20  C    0.000000
    21  O    0.000000
    22  O   -0.000002
    23  H   -0.000000
    24  C   -0.000000
    25  O   -0.000000
    26  N   -0.000000
    27  H   -0.000000
    28  H    0.000000
    29  H    0.000000
    30  H   -0.000000
    31  S   -0.019576
    32  C   -0.004357
    33  H    0.000024
    34  H    0.004973
    35  H   -0.000286
    36  C   -0.006106
    37  H   -0.000049
    38  H    0.005622
    39  H    0.000098
    40  C    0.326404
    41  H   -0.018125
    42  H   -0.017423
    43  H    0.425377
 Mulliken charges:
               1
     1  C    0.710790
     2  C   -0.223056
     3  C    0.117140
     4  N   -0.618943
     5  H    0.142824
     6  H    0.171550
     7  O   -0.563744
     8  N   -0.594794
     9  C    0.549346
    10  N   -0.801932
    11  H    0.430945
    12  H    0.332012
    13  H    0.343626
    14  C   -0.340096
    15  H    0.134309
    16  C   -0.260426
    17  C    0.601364
    18  H    0.141652
    19  H    0.144941
    20  C   -0.052973
    21  O   -0.635942
    22  O   -0.597600
    23  H    0.143642
    24  C    0.240097
    25  O   -0.399240
    26  N   -0.699920
    27  H    0.296224
    28  H    0.302784
    29  H    0.164562
    30  H    0.094532
    31  S    0.570861
    32  C   -0.614518
    33  H    0.268847
    34  H    0.245356
    35  H    0.177641
    36  C   -0.628331
    37  H    0.189236
    38  H    0.227694
    39  H    0.283759
    40  C   -0.650990
    41  H    0.196244
    42  H    0.192548
    43  H    0.267981
 Sum of Mulliken charges =  -0.00000
 Mulliken charges with hydrogens summed into heavy atoms:
               1
     1  C    0.710790
     2  C   -0.080232
     3  C    0.288689
     4  N   -0.275317
     7  O   -0.563744
     8  N   -0.594794
     9  C    0.549346
    10  N   -0.038974
    14  C   -0.041225
    16  C    0.026168
    17  C    0.601364
    20  C    0.090669
    21  O   -0.635942
    22  O   -0.597600
    24  C    0.334629
    25  O   -0.399240
    26  N   -0.100913
    31  S    0.570861
    32  C    0.077326
    36  C    0.072357
    40  C    0.005783
 Electronic spatial extent (au):  <R**2>=          11788.4573
 Charge=              0.0000 electrons
 Dipole moment (field-independent basis, Debye):
    X=             -1.5020    Y=              6.6946    Z=              6.0579  Tot=              9.1527
 Quadrupole moment (field-independent basis, Debye-Ang):
   XX=           -112.3003   YY=           -121.9973   ZZ=           -138.9820
   XY=             -7.1715   XZ=              2.9655   YZ=            -10.5368
 Traceless Quadrupole moment (field-independent basis, Debye-Ang):
   XX=             12.1262   YY=              2.4292   ZZ=            -14.5554
   XY=             -7.1715   XZ=              2.9655   YZ=            -10.5368
 Octapole moment (field-independent basis, Debye-Ang**2):
  XXX=            -22.0565  YYY=            220.7714  ZZZ=            100.9640  XYY=           -137.5979
  XXY=             63.7174  XXZ=             36.0668  XZZ=            -28.4835  YZZ=            117.0295
  YYZ=            172.8305  XYZ=            -68.4460
 Hexadecapole moment (field-independent basis, Debye-Ang**3):
 XXXX=          -1800.6818 YYYY=          -7337.7594 ZZZZ=          -6077.8577 XXXY=            537.6274
 XXXZ=            -59.8249 YYYX=            460.3751 YYYZ=          -2951.1699 ZZZX=           -142.6704
 ZZZY=          -3166.3949 XXYY=          -1385.4871 XXZZ=          -1222.6844 YYZZ=          -2563.8577
 XXYZ=           -866.9960 YYXZ=            -63.1566 ZZXY=            179.9505
 N-N= 1.829726945606D+03 E-N=-6.916865408684D+03  KE= 1.378136959462D+03
 Calling FoFJK, ICntrl=      2127 FMM=F ISym2X=0 I1Cent= 0 IOpClX= 0 NMat=1 NMatS=1 NMatT=0.
 -------------------------------------------------------------------
 Center     Atomic                   Forces (Hartrees/Bohr)
 Number     Number              X              Y              Z
 -------------------------------------------------------------------
      1        6           0.000051216   -0.000468143    0.000378790
      2        6          -0.000046134   -0.000042413   -0.000193275
      3        6           0.000178950    0.000023826    0.000376768
      4        7          -0.000075655    0.000387945   -0.000151803
      5        1           0.000121178    0.000034924   -0.000038760
      6        1           0.000068266    0.000032231   -0.000013196
      7        8           0.000356570    0.000084700   -0.000259431
      8        7           0.000787521    0.000292309   -0.001049289
      9        6          -0.000420233   -0.000498616    0.000544370
     10        7          -0.000151422    0.000083736   -0.000271108
     11        1          -0.000124472    0.001061750    0.000373007
     12        1           0.000153652   -0.000232718   -0.000176384
     13        1          -0.000038303   -0.000120070    0.000027283
     14        6           0.000426257    0.000132385   -0.000694615
     15        1          -0.000074899   -0.000166229    0.000104849
     16        6          -0.000016988    0.000203832    0.000489146
     17        6           0.001114518   -0.000208042   -0.001152772
     18        1           0.000030886   -0.000067743   -0.000106856
     19        1          -0.000037155   -0.000005604   -0.000006192
     20        6          -0.000119725   -0.000441209   -0.000332038
     21        8           0.000010300   -0.000748809    0.001349009
     22        8          -0.001206098   -0.000012966    0.000256470
     23        1           0.000016837    0.000123000    0.000109789
     24        6           0.000534390    0.000516076    0.000188314
     25        8          -0.000048555   -0.000266192   -0.000124677
     26        7          -0.000019005   -0.000020657   -0.000088967
     27        1           0.000046802   -0.000058133    0.000001881
     28        1           0.000000734   -0.000060944   -0.000027070
     29        1          -0.000082757   -0.000114717    0.000121753
     30        1          -0.000177726   -0.000128635   -0.000049936
     31       16          -0.000016859    0.000270977   -0.000918406
     32        6          -0.000555479    0.000668009    0.000023903
     33        1           0.000068146   -0.000688150    0.001227274
     34        1          -0.000060681    0.000385886    0.000138275
     35        1          -0.000135154    0.000272072   -0.000142909
     36        6          -0.000854792   -0.000450011   -0.000263469
     37        1          -0.000075139   -0.000022410    0.000205081
     38        1           0.000149696   -0.000098262    0.000264559
[...]
 0.00003228,-0.00003554,0.00032854,-0.00038349,0.00006093,-0.00025274,0
 .00022200,0.00018168,0.00003823,0.00007922,0.00014901,0.00001026,-0.00
 002331,-0.00005368,-0.00003915,0.00004775,0.00001550,-0.00010341,0.000
 05305,-0.00012241,-0.00001660,0.00002571,-0.00005508,0.01044203,0.0023
 0974,0.01356151,-0.00074427,-0.00080324,0.00092093,0.00139250,0.001639
 10,-0.00042944,-0.00020361,0.00002612,-0.00026751,-0.00013380,0.000021
 30,-0.00004890,-0.14011018,-0.01078030,-0.21322800,-0.00659921,-0.0021
 6809,-0.00772158,-0.00961629,0.00088859,-0.00994574,0.14155401,0.01167
 688,0.22274985,0.00131117,0.00044499,0.00135627,-0.00004766,-0.0000749
 2,-0.00008091,0.00012590,0.00005355,0.00018131,-0.00060621,0.00022240,
 -0.00019897,-0.00000550,-0.00000103,-0.00000380,-0.00003392,0.00001006
 ,-0.00001612,-0.00162469,0.00150870,-0.00102600,-0.00010614,-0.0000164
 2,-0.00052947,0.00018025,0.00004840,0.00029139,0.00002446,-0.00019038,
 -0.00031403,-0.00023010,0.00026209,0.00023817,0.00000231,-0.00001063,0
 .00002204,0.00002121,-0.00004834,-0.00000968,0.00038035,-0.00020144,0.
 00018373,0.00010954,0.00007919,0.00009095,0.00000237,-0.00008079,-0.00
 003337,-0.00312036,0.00274918,0.00021408,0.00001442,-0.00001594,-0.000
 05765,-0.00002540,-0.00002133,-0.00000954,-0.00001512,0.00002399,-0.00
 004231,0.00147513,-0.00149199,-0.00146755,0.00465584,-0.00001464,0.002
 66811,0.00001295,0.00000172,0.00000442,0.00007286,-0.00010988,-0.00001
 104,-0.00005409,0.00006454,0.00006100,0.00002221,0.00002454,0.00006514
 ,0.00000185,-0.00000896,-0.00002577,-0.00001720,0.00001977,0.00000730,
 0.00004921,0.00001684,0.00008010,-0.00000397,0.00000345,-0.00000905,-0
 .05794808,-0.00453524,-0.00343569,-0.00121654,-0.00054140,-0.00618062,
 -0.00000332,0.00051644,-0.00016526,0.00003422,-0.00110435,0.00057789,0
 .00002352,0.00023166,0.00022007,-0.01645856,-0.01246191,-0.02033956,-0
 .00007114,-0.00023405,0.00006319,0.00299686,-0.00039439,-0.00188053,-0
 .00419421,-0.00210453,0.00427971,0.53453158,-0.00011987,-0.00051802,-0
 .00054950,-0.00000204,0.00006099,0.00006971,-0.00010418,-0.00005170,-0
 .00007474,0.00015060,-0.00004151,0.00017184,0.00000526,-0.00000485,0.0
 0000121,0.00000891,-0.00000151,0.00000784,0.00133724,0.00061122,0.0003
 0643,0.00027268,0.00010838,-0.00021478,-0.00023375,-0.00012947,-0.0001
 5481,0.00005631,0.00033712,0.00012916,0.00010069,-0.00048047,-0.000117
 20,-0.00002427,-0.00001383,0.00000435,-0.00001240,-0.00000493,0.000003
 36,-0.00067271,0.00041704,-0.00004248,-0.00016146,-0.00010874,-0.00018
 353,-0.00003945,0.00014197,0.00007396,0.00438053,-0.00438856,-0.000769
 24,-0.00000927,0.00001941,0.00007702,0.00003107,0.00004276,0.00001772,
 0.00001501,-0.00005076,0.00007524,-0.00098268,0.00301002,0.00071905,-0
 .00516238,0.00148762,-0.00353728,-0.00000775,0.00000467,-0.00000404,-0
 .00012229,0.00016278,0.00002229,0.00009476,-0.00009254,-0.00009931,-0.
 00003047,-0.00001992,-0.00010756,0.00000280,-0.00000693,0.00003006,0.0
 0002712,-0.00002775,-0.00001193,-0.00012478,-0.00007580,-0.00015947,0.
 00000491,-0.00000127,0.00001059,-0.02869194,-0.07754952,-0.03818362,0.
 01276105,0.00885562,0.01625909,-0.00151084,-0.00484206,0.00340614,-0.0
 0011423,0.00180999,0.00055995,-0.00006058,-0.00023014,0.00031358,-0.00
 168688,-0.00111975,-0.00363693,0.00007338,-0.00039520,-0.00030212,0.00
 147833,0.00073201,0.00014425,-0.00015142,-0.00086398,0.00012828,-0.055
 89563,0.53509271,0.00091242,-0.00012978,0.00061874,-0.00002067,0.00001
 605,-0.00002597,0.00005219,0.00004312,0.00002009,-0.00026320,0.0002343
 5,-0.00011656,0.00000138,-0.00000420,-0.00000352,-0.00001732,0.0000086
 9,-0.00000803,-0.00123624,0.00048632,0.00090085,-0.00030710,-0.0004220
 8,-0.00000726,0.00006587,0.00004838,-0.00005785,-0.00011228,-0.0000535
 9,0.00009687,0.00009906,0.00000764,-0.00016780,0.00001284,0.00001258,-
 0.00001884,0.00002060,-0.00002675,-0.00002515,-0.00024895,0.00031103,0
 .00001072,-0.00006931,-0.00005569,-0.00011685,-0.00000872,0.00009368,0
 .00003296,0.00159743,-0.00187255,-0.00054698,-0.00000857,0.00001299,0.
 00002982,0.00001309,-0.00000327,0.00000922,0.00000411,-0.00001431,0.00
 001423,-0.00085329,0.00025716,0.00115230,-0.00192912,0.00030425,-0.000
 01425,-0.00000593,-0.00000034,-0.00000177,-0.00004078,0.00006736,-0.00
 001381,0.00003114,-0.00003773,-0.00002022,-0.00000539,-0.00002805,-0.0
 0002538,-0.00000372,0.00001079,0.00001132,0.00000699,-0.00000863,-0.00
 000345,-0.00006584,-0.00003741,-0.00005983,0.00000207,-0.00000893,0.00
 001039,-0.02424151,-0.02009632,-0.09369878,-0.01035027,-0.00745365,-0.
 01572468,0.00134372,0.00243958,-0.00275000,0.00059004,-0.00233049,0.00
 224353,0.00010915,-0.00023372,-0.00041227,0.00485903,0.00227088,0.0096
 3168,0.00018055,0.00020260,0.00000250,0.00053061,0.00088978,0.00031532
 ,0.00248905,0.00098198,-0.00267673,-0.08355955,-0.08200214,0.44669652,
 0.00019202,-0.00000458,0.00009057,-0.00000904,0.00000983,-0.00000538,-
 0.00000459,0.00001938,-0.00000086,-0.00007377,0.00006846,-0.00002855,-
 0.00000134,0.00000306,-0.00000125,-0.00000672,0.00000290,-0.00000236,-
 0.00045626,0.00013045,0.00020121,-0.00011690,-0.00008542,0.00003725,0.
 00004637,0.00001403,0.00000018,-0.00003524,-0.00003054,0.00002056,0.00
 002657,0.00002485,-0.00002901,0.00000493,0.00000483,-0.00000660,0.0000
 0642,0.00000341,-0.00001346,-0.00000307,0.00001284,-0.00001389,-0.0000
 0507,-0.00000329,-0.00000512,0.00000640,0.00000601,-0.00000187,0.00012
 611,-0.00002134,0.00003250,-0.00000377,0.00000121,0.00000408,0.0000020
 1,-0.00000331,0.00000011,0.00000041,0.00000233,-0.00000130,-0.00013453
 ,-0.00010061,0.00019489,-0.00014593,-0.00015176,-0.00002811,-0.0000023
 8,-0.00000123,-0.00000093,0.00000463,-0.00000005,-0.00000677,-0.000005
 12,0.00000015,0.00000507,-0.00000067,-0.00000283,0.00000227,-0.0000007
 6,0.00000266,0.00000105,0.00000038,-0.00000041,0.00000018,0.00000085,0
 .00000059,0.00000204,0.00000021,-0.00000158,0.00000140,-0.00290163,0.0
 0805301,-0.01082778,-0.00149999,-0.00152506,-0.00231115,0.00044949,0.0
 0064692,-0.00084124,0.00004815,-0.00051418,0.00020624,-0.00008235,0.00
 007601,-0.00050311,0.00094164,0.00044673,0.00066578,-0.00023526,-0.000
 33643,-0.00005156,-0.00029532,0.00027636,-0.00004205,-0.00001783,0.000
 07409,-0.00015256,-0.05002841,0.02071518,-0.01844400,0.04914047,-0.000
 77632,0.00002259,-0.00058214,0.00004371,0.00000474,0.00003205,-0.00005
 520,-0.00003156,-0.00005084,0.00029651,-0.00018472,0.00009036,0.000005
 34,-0.00000150,0.00000158,0.00001797,-0.00000906,0.00000811,0.00114263
 ,-0.00040681,-0.00002151,0.00022754,0.00012193,0.00029629,-0.00014525,
 -0.00004353,-0.00016049,0.00003324,0.00007719,0.00011451,0.00006275,-0
 .00004846,-0.00002926,-0.00000579,0.00000427,-0.00000089,-0.00001667,0
 .00001634,0.00002642,-0.00000262,-0.00001655,0.00000228,0.00000069,-0.
 00000456,-0.00000245,-0.00000112,0.00000092,-0.00000435,-0.00006381,0.
 00016303,0.00010766,-0.00000005,0.00000230,-0.00000087,-0.00000181,-0.
 00000322,0.00000079,0.00000009,-0.00000303,-0.00000124,-0.00006726,-0.
 00013636,-0.00001762,0.00011317,-0.00017055,0.00003080,0.00000013,0.00
 000009,0.00000053,-0.00000279,0.00000556,-0.00000559,0.00000257,-0.000
 00253,0.00000207,0.00000135,-0.00000386,0.00000170,-0.00000082,0.00000
 242,0.00000032,-0.00000081,0.00000015,0.00000002,0.00000734,0.00000305
 ,0.00000643,-0.00000004,-0.00000192,0.00000198,-0.00171891,0.01007971,
 -0.01305742,-0.00217635,-0.00270005,-0.00240750,0.00011861,0.00126839,
 -0.00078408,-0.00017668,0.00009163,0.00012051,0.00002053,0.00008398,-0
 .00011709,0.00069420,0.00039672,0.00029961,-0.00006053,0.00004596,0.00
 009061,-0.00002968,-0.00013921,0.00015806,0.00019770,0.00005123,-0.000
 16308,0.01885544,-0.16755361,0.13731310,-0.01782568,0.17672552,-0.0003
 3009,-0.00003182,-0.00032780,0.00001498,0.00002640,0.00002422,-0.00003
 853,-0.00001267,-0.00003558,0.00012482,-0.00005283,0.00005562,-0.00000
 061,0.00000304,-0.00000052,0.00000606,-0.00000145,0.00000390,0.0004396
 1,-0.00018286,0.00007206,0.00003538,0.00006328,0.00021670,-0.00001830,
 -0.00004461,-0.00008852,-0.00001988,0.00004311,0.00008555,0.00009315,-
 0.00005019,-0.00004301,0.00000210,0.00000807,-0.00000129,-0.00000666,0
 .00001056,0.00000100,-0.00002121,-0.00000627,-0.00002875,-0.00000438,-
 0.00001339,-0.00001047,-0.00000681,0.00001210,-0.00000934,0.00006340,0
 .00019065,0.00021571,-0.00000101,0.00000676,0.00000368,-0.00000145,-0.
 00000487,0.00000435,0.00000503,-0.00001469,0.00000161,-0.00023997,-0.0
 0028324,0.00003288,-0.00009106,-0.00033078,-0.00016765,-0.00000157,0.0
 0000076,0.00000185,-0.00002424,0.00003779,-0.00001030,0.00001948,-0.00
 002122,-0.00000860,0.00000111,-0.00001678,-0.00000633,-0.00000255,0.00
 000842,0.00000470,0.00000045,-0.00000203,-0.00000132,0.00000529,-0.000
 00144,0.00000241,0.00000076,-0.00000581,0.00000722,-0.00197428,0.01240
 709,-0.01598307,-0.00295396,-0.00298776,-0.00286547,0.00070884,0.00116
 929,-0.00072765,0.00020587,-0.00049002,0.00025511,0.00007829,0.0000297
 9,-0.00006070,0.00105772,0.00020349,0.00094782,-0.00044986,-0.00019647
 ,0.00009919,-0.00027214,0.00003101,0.00011576,-0.00000329,-0.00001236,
 -0.00021159,-0.01826485,0.13801311,-0.20240100,0.02251477,-0.14716727,
 0.21708795,0.00026800,-0.00007609,0.00019461,-0.00002301,0.00001587,0.
 00000150,-0.00000821,0.00000950,0.00001507,-0.00013189,0.00008628,-0.0
 0000914,-0.00000568,0.00000271,0.00000036,-0.00000981,0.00000507,-0.00
 000259,-0.00026605,0.00051010,-0.00023287,-0.00004263,0.00006167,-0.00
 015538,0.00006127,-0.00002804,0.00006418,-0.00000554,0.00002022,-0.000
 05087,0.00000042,-0.00004281,0.00002517,-0.00000227,-0.00000433,0.0000
 0780,-0.00001040,-0.00001993,0.00000301,-0.00002337,-0.00001046,-0.000
 00998,-0.00000127,-0.00000413,-0.00000239,-0.00001139,-0.00000032,0.00
 000100,0.00008609,0.00003458,0.00012727,0.00000223,0.00000076,0.000002
 33,0.00000089,0.00000531,0.00000103,0.00000294,-0.00001074,0.00000813,
 0.00006894,0.00012782,-0.00025279,-0.00005410,-0.00006526,-0.00028084,
 0.00000101,0.00000204,0.00000098,-0.00001779,0.00001649,0.00000726,0.0
 0001466,-0.00000922,-0.00001465,-0.00000227,0.00000025,-0.00001213,0.0
 0000057,-0.00000266,0.00000238,0.00000212,-0.00000253,-0.00000112,-0.0
 0000355,-0.00000430,-0.00000496,0.00000054,0.00000113,0.00000004,-0.00
 996605,-0.00302040,0.00257209,0.00080247,0.00015417,0.00065395,-0.0001
 3089,-0.00000205,-0.00007299,-0.00031883,0.00024686,-0.00002964,-0.000
 07329,0.00007753,-0.00050545,-0.00121997,-0.00089268,-0.00215361,-0.00
 013066,-0.00016012,-0.00001064,0.00063100,-0.00021221,-0.00024756,-0.0
 0018247,-0.00054927,0.00068419,-0.27694002,-0.06701188,0.08372371,0.00
 530344,0.00204785,-0.00107794,0.29441834,-0.00062039,-0.00001745,-0.00
 048058,0.00002747,0.00001169,0.00003578,-0.00003204,-0.00001924,-0.000
 05703,0.00025059,-0.00012219,0.00006661,0.00000166,-0.00000055,0.00000
 141,0.00001499,-0.00000521,0.00000631,0.00062106,-0.00073082,0.0003789
 0,0.00016601,0.00013304,0.00024213,-0.00009236,-0.00005878,-0.00011584
 ,0.00002604,0.00008627,0.00007763,0.00005879,-0.00008810,-0.00000362,-
 0.00000255,0.00000552,0.00000169,-0.00000086,0.00002568,0.00000041,0.0
 0000449,-0.00000280,-0.00003200,0.00000293,-0.00000473,0.00000439,-0.0
 0001562,-0.00000079,-0.00000360,-0.00005577,0.00024534,0.00016821,0.00
 000248,0.00000401,-0.00000119,-0.00000163,0.00000054,0.00000352,0.0000
 0493,-0.00001321,0.00000232,-0.00000306,-0.00007294,-0.00027497,0.0001
 0911,-0.00018251,-0.00013309,0.00000113,0.00000195,0.00000254,-0.00002
 439,0.00002768,0.00000039,0.00002096,-0.00001561,-0.00001249,0.0000007
 5,-0.00001021,-0.00000782,-0.00000156,0.00000344,0.00000219,0.00000039
 ,-0.00000115,-0.00000149,0.00000034,-0.00000691,-0.00000319,0.00000054
 ,-0.00000244,0.00000371,-0.01166129,-0.00458693,0.00443669,0.00049530,
 0.00006609,0.00038959,-0.00002603,-0.00014603,0.00001231,0.00019861,0.
 00008649,-0.00013328,-0.00005173,0.00024244,-0.00007879,-0.00091314,-0
 .00094746,-0.00336339,0.00020102,0.00009393,0.00009330,0.00012755,0.00
 004649,0.00002592,-0.00060285,-0.00006172,0.00091590,-0.06706136,-0.06
 924286,0.02496143,-0.01908795,-0.00551363,0.00538896,0.07539212,0.0689
 6402,-0.00052191,-0.00002381,-0.00037233,0.00002151,0.00000644,0.00003
 107,-0.00004502,-0.00000917,-0.00004633,0.00018357,-0.00010232,0.00006
 054,0.00000088,-0.00000085,0.00000295,0.00001083,-0.00000381,0.0000035
 7,0.00051606,-0.00033966,0.00023614,0.00020266,0.00016109,0.00012874,-
 0.00011051,-0.00006025,-0.00009054,0.00004859,0.00009781,0.00004461,0.
 00002235,-0.00008912,0.00002409,-0.00000832,-0.00000040,0.00000430,-0.
 00000566,0.00001917,0.00000712,-0.00000020,-0.00000624,-0.00001506,0.0
 0000546,0.00000085,0.00000781,-0.00000906,-0.00000643,0.00000065,-0.00
 001028,0.00015437,0.00015684,0.00000269,-0.00000061,-0.00000082,-0.000
 00028,0.00000537,0.00000038,0.00000144,-0.00000527,0.00000472,0.000105
 26,0.00009059,-0.00028403,0.00016177,-0.00009492,-0.00020086,0.0000017
 4,0.00000174,0.00000086,-0.00000833,0.00000348,0.00000521,0.00000729,-
 0.00000125,-0.00000690,-0.00000148,0.00000332,-0.00000639,0.00000074,-
 0.00000407,-0.00000017,0.00000112,-0.00000089,-0.00000070,-0.00000183,
 -0.00000579,-0.00000563,0.00000013,0.00000166,-0.00000106,-0.02212731,
 -0.00705601,0.00608859,0.00077583,0.00004158,0.00136506,-0.00012943,-0
 .00021297,0.00013378,-0.00011089,0.00027165,-0.00007826,-0.00002736,0.
 00009785,-0.00037874,-0.00206364,-0.00231308,-0.00506858,-0.00032025,-
 0.00026738,0.00001200,0.00033238,0.00011578,-0.00026355,-0.00142887,-0
 .00063369,0.00135121,0.08188644,0.02568001,-0.07438672,0.02359951,0.00
 568521,-0.00605703,-0.08748409,-0.02547983,0.07998915,-0.00506770,0.00
 013246,-0.00353575,0.00026441,0.00003239,0.00022724,-0.00033127,-0.000
 10985,-0.00042812,0.00180910,-0.00098574,0.00044486,0.00003521,-0.0000
 1902,0.00001587,0.00010577,-0.00004337,0.00003719,0.00218746,-0.000618
 88,0.00243830,0.00140771,0.00056626,0.00181428,-0.00106314,-0.00027783
 ,-0.00107808,0.00025523,0.00064901,0.00077306,0.00037228,-0.00057326,-
 0.00023429,-0.00004184,0.00002214,-0.00002381,-0.00005815,0.00016418,0
 .00007034,-0.00022287,0.00014028,-0.00008064,-0.00006845,-0.00005308,-
 0.00005755,-0.00001086,0.00005092,0.00002041,0.00191573,-0.00146579,0.
 00003684,-0.00001185,0.00001407,0.00003660,0.00001312,0.00001849,0.000
 00758,0.00001187,-0.00002181,0.00003163,-0.00094932,0.00109973,0.00045
 868,-0.00214597,-0.00003461,-0.00155966,-0.00000773,-0.00000121,-0.000
 00184,-0.00005279,0.00007211,0.00000796,0.00003836,-0.00004217,-0.0000
 4322,-0.00001879,-0.00001075,-0.00004859,-0.00000071,0.00000401,0.0000
 1650,0.00001443,-0.00001521,-0.00000529,-0.00003300,-0.00002220,-0.000
 05891,0.00000281,-0.00000075,0.00000554,0.00512006,-0.01514541,-0.0095
 4015,0.00004991,-0.00093973,0.00152785,0.00004051,-0.00020834,-0.00002
 863,0.00061471,0.00033397,-0.00040289,-0.00001972,0.00011417,0.0001115
 2,0.00232068,-0.00051215,-0.00077747,-0.00018476,0.00017233,0.00013119
 ,-0.00083455,-0.00013969,0.00059738,0.00005825,0.00005434,-0.00018311,
 -0.13329759,0.12141732,0.04514671,-0.00023453,-0.00076118,0.00042753,-
 0.01208353,0.02252529,0.00652647,0.14010151,0.00287070,0.00035476,0.00
 273913,-0.00016933,-0.00000796,-0.00013875,0.00032242,0.00010632,0.000
 23921,-0.00115669,0.00070360,-0.00042756,-0.00001623,-0.00000471,-0.00
 001074,-0.00006236,0.00003339,-0.00002964,-0.00164752,-0.00224932,-0.0
 0176543,-0.00105240,-0.00066225,-0.00105794,0.00064753,0.00011325,0.00
 055728,-0.00019555,-0.00036954,-0.00041513,-0.00017421,0.00026906,0.00
 005578,0.00003350,-0.00000555,0.00000653,0.00005833,-0.00009411,-0.000
 05602,-0.00004445,0.00005311,-0.00001374,-0.00000888,-0.00000301,-0.00
 001633,-0.00000295,0.00001602,0.00000496,0.00026988,-0.00036690,-0.000
 18143,0.00000120,0.00000113,0.00000268,0.00000201,-0.00000433,0.000002
 54,-0.00000154,-0.00000088,-0.00000280,0.00005983,-0.00000013,0.000268
 65,-0.00045705,0.00007739,-0.00018516,0.00000039,0.00000098,-0.0000000
 8,-0.00000692,0.00001519,-0.00000759,0.00000723,-0.00000778,0.00000148
 ,0.00000487,-0.00001146,0.00000282,-0.00000121,0.00000269,-0.00000001,
 -0.00000242,0.00000214,-0.00000063,-0.00001374,-0.00000755,-0.00000819
 ,-0.00000012,-0.00000423,0.00000378,0.00209290,-0.01054759,-0.00794201
 ,0.00024697,0.00113684,0.00171844,-0.00020204,-0.00014684,0.00023908,-
 0.00012791,0.00068766,-0.00014387,0.00007737,-0.00015515,0.00008414,0.
 00150426,0.00011633,0.00090292,-0.00003556,-0.00000237,-0.00000621,-0.
 00119633,0.00054663,0.00024000,0.00006281,0.00042508,-0.00029844,0.121
 48261,-0.22507862,-0.05615411,0.00910097,-0.01219301,-0.00572284,-0.00
 668891,0.01180965,0.00427985,-0.12558146,0.23545202,-0.00121797,0.0006
 5049,-0.00067757,0.00005673,0.00001573,0.00005969,-0.00006913,-0.00008
 602,-0.00001135,0.00028095,-0.00029096,0.00013355,0.00001806,-0.000012
 80,-0.00000341,0.00001946,-0.00001382,0.00001384,0.00156424,-0.0009927
 8,-0.00131102,0.00045860,0.00017268,0.00014165,-0.00029813,-0.00015030
 ,-0.00031375,0.00006681,0.00022515,0.00019163,0.00010404,-0.00024834,-
 0.00008887,-0.00001610,-0.00000106,0.00000298,-0.00001613,0.00002298,0
 .00003370,-0.00023486,0.00011829,-0.00003923,-0.00005702,-0.00004317,-
 0.00006051,-0.00001582,0.00004766,0.00002232,0.00163590,-0.00146301,-0
 .00007642,-0.00000392,0.00000933,0.00002860,0.00001051,0.00001638,0.00
 000663,0.00000613,-0.00002112,0.00002784,-0.00051025,0.00102738,0.0003
 4152,-0.00193810,0.00013357,-0.00144909,-0.00000305,0.00000158,-0.0000
 0127,-0.00004932,0.00006507,0.00000801,0.00003881,-0.00003668,-0.00003
 826,-0.00001125,-0.00000935,-0.00004049,0.00000046,-0.00000085,0.00001
 211,0.00000965,-0.00001062,-0.00000460,-0.00003570,-0.00002009,-0.0000
 5202,0.00000186,-0.00000106,0.00000468,0.00538578,-0.02095975,-0.01372
 550,0.00159158,-0.00150130,0.00190883,-0.00036013,-0.00020314,0.000308
 34,-0.00045469,0.00090107,-0.00123771,-0.00007144,0.00018405,0.0000374
 2,0.00184616,0.00165606,0.00069566,0.00010188,0.00008035,0.00003128,-0
 .00063508,0.00027317,0.00107859,0.00019921,0.00016071,-0.00031568,0.04
 517001,-0.05607355,-0.06851339,-0.01426075,0.02018268,0.00980669,0.004
 51555,-0.00704003,-0.00239566,-0.04282353,0.06323541,0.07546022\\0.000
 00083,0.00000023,-0.00000012,0.00000081,0.00000057,-0.00000003,0.00000
 094,0.00000054,-0.00000020,0.00000108,0.00000032,-0.00000014,0.0000008
 4,0.00000070,0.00000002,0.00000121,0.00000065,-0.00000012,0.00000077,0
 .00000006,-0.00000024,0.00000050,0.00000020,-0.00000016,0.00000064,0.0
 0000031,-0.00000005,0.00000041,0.00000047,0.00000002,0.00000020,0.0000
 0031,0.00000008,0.00000041,0.00000054,0.00000012,0.00000117,0.00000035
 ,-0.00000022,-0.00000043,-0.00000007,0.00000020,-0.00000047,0.00000021
 ,0.00000020,-0.00000079,-0.00000021,0.00000007,-0.00000134,0.00000076,
 -0.00000005,-0.00000066,-0.00000036,0.00000007,-0.00000079,-0.00000011
 ,0.00000022,-0.00000093,-0.00000019,0.00000027,0.00000035,-0.00000036,
 -0.00000007,0.00000024,-0.00000043,0.00000020,-0.00000096,0.00000008,0
 .00000030,-0.00000124,-0.00000020,0.00000029,-0.00000131,-0.00000043,0
 .00000024,-0.00000088,-0.00000022,0.00000019,-0.00000084,-0.00000039,0
 .00000011,-0.00000102,-0.00000020,0.00000023,-0.00000040,-0.00000005,0
 .00000013,-0.00000125,-0.00000020,0.00000030,0.00000013,-0.00000030,-0
 .00000007,0.00000020,-0.00000025,-0.00000018,0.00000018,-0.00000023,-0
 .00000013,0.00000046,-0.00000028,-0.00000023,0.00000023,-0.00000054,-0
 .00000027,0.00000006,0.00000004,-0.00000002,-0.00000003,0.00000005,0.0
 0000004,0.00000029,0.00000010,-0.00000006,-0.00000005,0.00000013,0.000
 00006,0.00000032,-0.00000037,-0.00000023,0.00000023,-0.00000036,-0.000
 00020,0.00000036,-0.00000057,-0.00000031,0.00000049,-0.00000026,-0.000
 00023\\\@


 THERE'S NOTHING SO GREAT AS THE GREAT OUTDOORS.

                                       -- ZIGGY
 Job cpu time:       0 days  1 hours 24 minutes 51.3 seconds.
 File lengths (MBytes):  RWF=    701 Int=      0 D2E=      0 Chk=     12 Scr=      1
 Normal termination of Gaussian 09 at Thu Mar 25 04:05:58 2021.
