 Entering Gaussian System, Link 0=g09
 Initial command:
 /opt/software/gaussian/g09.e01/l1.exe "/localscratch/enas93.64620092.0/Gau-6580.inp" -scrdir="/localscratch/enas93.64620092.0/"
 Entering Link 1 = /opt/software/gaussian/g09.e01/l1.exe PID=      6581.
  
 Copyright (c) 1988,1990,1992,1993,1995,1998,2003,2009,2015,
            Gaussian, Inc.  All Rights Reserved.
  
 This is part of the Gaussian(R) 09 program.  It is based on
 the Gaussian(R) 03 system (copyright 2003, Gaussian, Inc.),
 the Gaussian(R) 98 system (copyright 1998, Gaussian, Inc.),
 the Gaussian(R) 94 system (copyright 1995, Gaussian, Inc.),
 the Gaussian 92(TM) system (copyright 1992, Gaussian, Inc.),
 the Gaussian 90(TM) system (copyright 1990, Gaussian, Inc.),
 the Gaussian 88(TM) system (copyright 1988, Gaussian, Inc.),
 the Gaussian 86(TM) system (copyright 1986, Carnegie Mellon
 University), and the Gaussian 82(TM) system (copyright 1983,
 Carnegie Mellon University). Gaussian is a federally registered
 trademark of Gaussian, Inc.
  
 This software contains proprietary and confidential information,
 including trade secrets, belonging to Gaussian, Inc.
  
 This software is provided under written license and may be
 used, copied, transmitted, or stored only in accord with that
 written license.
  
 The following legend is applicable only to US Government
 contracts under FAR:
  
                    RESTRICTED RIGHTS LEGEND
  
 Use, reproduction and disclosure by the US Government is
 subject to restrictions as set forth in subparagraphs (a)
 and (c) of the Commercial Computer Software - Restricted
 Rights clause in FAR 52.227-19.
  
 Gaussian, Inc.
 340 Quinnipiac St., Bldg. 40, Wallingford CT 06492
  
  
 ---------------------------------------------------------------
 Warning -- This program may not be used in any manner that
 competes with the business of Gaussian, Inc. or will provide
 assistance to any competitor of Gaussian, Inc.  The licensee
 of this program is prohibited from giving any competitor of
 Gaussian, Inc. access to this program.  By using this program,
 the user acknowledges that Gaussian, Inc. is engaged in the
 business of creating and licensing software in the field of
 computational chemistry and represents and warrants to the
 licensee that it is not a competitor of Gaussian, Inc. and that
 it will not use this program in any manner prohibited above.
 ---------------------------------------------------------------
  

 Cite this work as:
 Gaussian 09, Revision E.01,
 M. J. Frisch, G. W. Trucks, H. B. Schlegel, G. E. Scuseria, 
 M. A. Robb, J. R. Cheeseman, G. Scalmani, V. Barone, B. Mennucci, 
 G. A. Petersson, H. Nakatsuji, M. Caricato, X. Li, H. P. Hratchian, 
 A. F. Izmaylov, J. Bloino, G. Zheng, J. L. Sonnenberg, M. Hada, 
 M. Ehara, K. Toyota, R. Fukuda, J. Hasegawa, M. Ishida, T. Nakajima, 
 Y. Honda, O. Kitao, H. Nakai, T. Vreven, J. A. Montgomery, Jr., 
 J. E. Peralta, F. Ogliaro, M. Bearpark, J. J. Heyd, E. Brothers, 
 K. N. Kudin, V. N. Staroverov, T. Keith, R. Kobayashi, J. Normand, 
 K. Raghavachari, A. Rendell, J. C. Burant, S. S. Iyengar, J. Tomasi, 
 M. Cossi, N. Rega, J. M. Millam, M. Klene, J. E. Knox, J. B. Cross, 
 V. Bakken, C. Adamo, J. Jaramillo, R. Gomperts, R. E. Stratmann, 
 O. Yazyev, A. J. Austin, R. Cammi, C. Pomelli, J. W. Ochterski, 
 R. L. Martin, K. Morokuma, V. G. Zakrzewski, G. A. Voth, 
 P. Salvador, J. J. Dannenberg, S. Dapprich, A. D. Daniels, 
 O. Farkas, J. B. Foresman, J. V. Ortiz, J. Cioslowski, 
 and D. J. Fox, Gaussian, Inc., Wallingford CT, 2013.
 
 ******************************************
 Gaussian 09:  EM64L-G09RevE.01 30-Nov-2015
                25-Mar-2021 
 ******************************************
 %nprocshared=16
 Will use up to   16 processors via shared memory.
 %mem=10GB
 ---------------------------------------------------------
 # opt=tight freq 6-31g(d) nosymm integral=ultrafine m062x
 ---------------------------------------------------------
 1/7=10,14=-1,18=20,19=15,26=4,38=1/1,3;
 2/9=110,12=2,15=1,17=6,18=5,40=1/2;
 3/5=1,6=6,7=1,11=2,16=1,25=1,30=1,71=1,74=-55,75=-5/1,2,3;
 4//1;
 5/5=2,38=5/2;
 6/7=2,8=2,9=2,10=2,28=1/1;
 7/30=1/1,2,3,16;
 1/7=10,14=-1,18=20,19=15,26=4/3(2);
 2/9=110,15=1/2;
 99//99;
 2/9=110,15=1/2;
 3/5=1,6=6,7=1,11=2,16=1,25=1,30=1,71=1,74=-55,75=-5/1,2,3;
 4/5=5,16=3,69=1/1;
 5/5=2,38=5/2;
 7/30=1/1,2,3,16;
 1/7=10,14=-1,18=20,19=15,26=4/3(-5);
 2/9=110,15=1/2;
 6/7=2,8=2,9=2,10=2,19=2,28=1/1;
 99/9=1/99;
 -------------------
 Title Card Required
 -------------------
 Symbolic Z-matrix:
 Charge =  0 Multiplicity = 1
 C                     0.24277   3.73069   1.43069 
 C                    -1.44065   4.73609  -0.57747 
 C                    -1.07282   5.5218    0.45346 
 N                    -0.25265   5.0405    1.42961 
 H                    -2.09345   5.09132  -1.36312 
 H                    -1.40041   6.54927   0.56367 
 O                     0.94622   3.37013   2.36973 
 N                    -0.10642   2.94876   0.3774 
 C                    -0.92752   3.38165  -0.60184 
 N                    -1.24473   2.56069  -1.5764 
 H                    -1.02046   1.51279  -1.61774 
 H                    -1.93479   2.80908  -2.27638 
 H                     0.02237   5.6059    2.22113 
 S                     1.42757  -1.06716  -0.10008 
 C                     1.91135  -0.93038  -1.83727 
 H                     0.99468  -0.67202  -2.37268 
 H                     2.66212  -0.14295  -1.94992 
 H                     2.31554  -1.88339  -2.18466 
 C                     0.6743    1.04698   0.21051 
 H                     1.23667   1.19086   1.12544 
 H                     1.08184   1.35283  -0.74484 
 H                    -0.33775   0.67251   0.22601 
 C                     3.06531  -1.08351   0.6723 
 H                     2.93155  -1.22354   1.74589 
 H                     3.64646  -1.90728   0.25202 
 H                     3.57346  -0.13246   0.49155 
 C                    -2.36138  -1.61619  -3.02025 
 H                    -3.21779  -1.88317  -2.38563 
 C                    -1.23978  -2.62461  -2.80813 
 C                    -1.9674   -0.17729  -2.66563 
 H                    -0.39799  -2.3925   -3.47814 
 H                    -0.85684  -2.52247  -1.78606 
 C                    -1.67037  -4.07442  -3.05716 
 O                    -2.62099   0.75251  -3.15112 
 O                    -0.98229  -0.04383  -1.84622 
 H                    -2.50327  -4.29849  -2.37127 
 C                    -0.52543  -4.99344  -2.66681 
 O                    -0.01795  -5.78951  -3.41887 
 N                    -2.12882  -4.2657   -4.42198 
 H                    -1.36543  -4.01152  -5.04914 
 H                    -2.27303  -5.26176  -4.58232 
 H                    -2.72747  -1.63774  -4.04883 
 H                    -0.15636  -4.88132  -1.62306 
 N                     2.12642   0.77262   3.19781 
 H                     3.06375   0.60684   3.55591 
 C                     1.14129   0.21884   4.10416 
 H                     1.08403   0.74563   5.07563 
 C                    -0.24132   0.27273   3.44306 
 C                     1.53741  -1.21881   4.4265 
 H                    -0.27459  -0.402     2.58196 
 H                    -1.05102   0.0037    4.12994 
 H                    -0.42358   1.29286   3.0929 
 O                     2.54239  -1.74531   4.0298 
 O                     0.68565  -1.89309   5.22383 
 H                     1.97008   1.77483   3.09236 
 H                    -0.07306  -1.33568   5.45399 
 
 Add virtual bond connecting atoms O35        and H11        Dist= 2.97D+00.
 Add virtual bond connecting atoms H55        and O7         Dist= 3.83D+00.
 Add virtual bond connecting atoms C19        and N8         Dist= 3.90D+00.
 Add virtual bond connecting atoms H20        and H55        Dist= 4.12D+00.
 Add virtual bond connecting atoms H22        and H11        Dist= 4.04D+00.
 Add virtual bond connecting atoms C19        and S14        Dist= 4.28D+00.
 Add virtual bond connecting atoms O35        and H16        Dist= 4.04D+00.

 GradGradGradGradGradGradGradGradGradGradGradGradGradGradGradGradGradGrad
 Berny optimization.
 Initialization pass.
                           ----------------------------
                           !    Initial Parameters    !
                           ! (Angstroms and Degrees)  !
 --------------------------                            --------------------------
 ! Name  Definition              Value          Derivative Info.                !
 --------------------------------------------------------------------------------
 ! R1    R(1,4)                  1.4004         estimate D2E/DX2                !
 ! R2    R(1,7)                  1.2275         estimate D2E/DX2                !
 ! R3    R(1,8)                  1.3575         estimate D2E/DX2                !
 ! R4    R(2,3)                  1.3474         estimate D2E/DX2                !
 ! R5    R(2,5)                  1.0815         estimate D2E/DX2                !
 ! R6    R(2,9)                  1.4486         estimate D2E/DX2                !
 ! R7    R(3,4)                  1.3628         estimate D2E/DX2                !
 ! R8    R(3,6)                  1.084          estimate D2E/DX2                !
 ! R9    R(4,13)                 1.0109         estimate D2E/DX2                !
 ! R10   R(7,55)                 2.0287         estimate D2E/DX2                !
 ! R11   R(8,9)                  1.3493         estimate D2E/DX2                !
 ! R12   R(8,19)                 2.0626         estimate D2E/DX2                !
 ! R13   R(9,10)                 1.3131         estimate D2E/DX2                !
 ! R14   R(10,11)                1.0724         estimate D2E/DX2                !
 ! R15   R(10,12)                1.0138         estimate D2E/DX2                !
 ! R16   R(11,22)                2.1381         estimate D2E/DX2                !
 ! R17   R(11,35)                1.5738         estimate D2E/DX2                !
 ! R18   R(14,15)                1.8085         estimate D2E/DX2                !
 ! R19   R(14,19)                2.2657         estimate D2E/DX2                !
 ! R20   R(14,23)                1.8108         estimate D2E/DX2                !
 ! R21   R(15,16)                1.0926         estimate D2E/DX2                !
 ! R22   R(15,17)                1.0938         estimate D2E/DX2                !
 ! R23   R(15,18)                1.0919         estimate D2E/DX2                !
 ! R24   R(16,35)                2.1401         estimate D2E/DX2                !
 ! R25   R(19,20)                1.0835         estimate D2E/DX2                !
 ! R26   R(19,21)                1.0827         estimate D2E/DX2                !
 ! R27   R(19,22)                1.0792         estimate D2E/DX2                !
 ! R28   R(20,55)                2.1789         estimate D2E/DX2                !
 ! R29   R(23,24)                1.0909         estimate D2E/DX2                !
 ! R30   R(23,25)                1.0922         estimate D2E/DX2                !
 ! R31   R(23,26)                1.0933         estimate D2E/DX2                !
 ! R32   R(27,28)                1.0988         estimate D2E/DX2                !
 ! R33   R(27,29)                1.5231         estimate D2E/DX2                !
 ! R34   R(27,30)                1.5334         estimate D2E/DX2                !
 ! R35   R(27,42)                1.092          estimate D2E/DX2                !
 ! R36   R(29,31)                1.1006         estimate D2E/DX2                !
 ! R37   R(29,32)                1.0962         estimate D2E/DX2                !
 ! R38   R(29,33)                1.5328         estimate D2E/DX2                !
 ! R39   R(30,34)                1.2359         estimate D2E/DX2                !
 ! R40   R(30,35)                1.2883         estimate D2E/DX2                !
 ! R41   R(33,36)                1.102          estimate D2E/DX2                !
 ! R42   R(33,37)                1.5192         estimate D2E/DX2                !
 ! R43   R(33,39)                1.4524         estimate D2E/DX2                !
 ! R44   R(37,38)                1.207          estimate D2E/DX2                !
 ! R45   R(37,43)                1.1127         estimate D2E/DX2                !
 ! R46   R(39,40)                1.0201         estimate D2E/DX2                !
 ! R47   R(39,41)                1.0191         estimate D2E/DX2                !
 ! R48   R(44,45)                1.017          estimate D2E/DX2                !
 ! R49   R(44,46)                1.4487         estimate D2E/DX2                !
 ! R50   R(44,55)                1.0198         estimate D2E/DX2                !
 ! R51   R(46,47)                1.1066         estimate D2E/DX2                !
 ! R52   R(46,48)                1.5335         estimate D2E/DX2                !
 ! R53   R(46,49)                1.5257         estimate D2E/DX2                !
 ! R54   R(48,50)                1.0945         estimate D2E/DX2                !
 ! R55   R(48,51)                1.0954         estimate D2E/DX2                !
 ! R56   R(48,52)                1.0938         estimate D2E/DX2                !
 ! R57   R(49,53)                1.2019         estimate D2E/DX2                !
 ! R58   R(49,54)                1.3475         estimate D2E/DX2                !
 ! R59   R(54,56)                0.9692         estimate D2E/DX2                !
 ! A1    A(4,1,7)              118.5605         estimate D2E/DX2                !
 ! A2    A(4,1,8)              116.5614         estimate D2E/DX2                !
 ! A3    A(7,1,8)              124.8773         estimate D2E/DX2                !
 ! A4    A(3,2,5)              121.9434         estimate D2E/DX2                !
 ! A5    A(3,2,9)              117.4778         estimate D2E/DX2                !
 ! A6    A(5,2,9)              120.5787         estimate D2E/DX2                !
 ! A7    A(2,3,4)              120.4243         estimate D2E/DX2                !
 ! A8    A(2,3,6)              123.2298         estimate D2E/DX2                !
 ! A9    A(4,3,6)              116.3457         estimate D2E/DX2                !
 ! A10   A(1,4,3)              122.9429         estimate D2E/DX2                !
 ! A11   A(1,4,13)             115.2332         estimate D2E/DX2                !
 ! A12   A(3,4,13)             121.8074         estimate D2E/DX2                !
 ! A13   A(1,7,55)             142.443          estimate D2E/DX2                !
 ! A14   A(1,8,9)              122.3349         estimate D2E/DX2                !
 ! A15   A(1,8,19)             119.7703         estimate D2E/DX2                !
 ! A16   A(9,8,19)             117.8687         estimate D2E/DX2                !
 ! A17   A(2,9,8)              120.2212         estimate D2E/DX2                !
 ! A18   A(2,9,10)             120.7612         estimate D2E/DX2                !
 ! A19   A(8,9,10)             119.0162         estimate D2E/DX2                !
 ! A20   A(9,10,11)            126.084          estimate D2E/DX2                !
 ! A21   A(9,10,12)            121.578          estimate D2E/DX2                !
 ! A22   A(11,10,12)           110.801          estimate D2E/DX2                !
 ! A23   A(10,11,22)           114.6798         estimate D2E/DX2                !
 ! A24   A(22,11,35)            74.2603         estimate D2E/DX2                !
 ! A25   A(15,14,19)            98.6293         estimate D2E/DX2                !
 ! A26   A(15,14,23)            99.6989         estimate D2E/DX2                !
 ! A27   A(19,14,23)           104.5157         estimate D2E/DX2                !
 ! A28   A(14,15,16)           105.3179         estimate D2E/DX2                !
 ! A29   A(14,15,17)           109.6936         estimate D2E/DX2                !
 ! A30   A(14,15,18)           109.7928         estimate D2E/DX2                !
 ! A31   A(16,15,17)           110.8046         estimate D2E/DX2                !
 ! A32   A(16,15,18)           111.1653         estimate D2E/DX2                !
 ! A33   A(17,15,18)           109.9668         estimate D2E/DX2                !
 ! A34   A(15,16,35)           136.378          estimate D2E/DX2                !
 ! A35   A(8,19,20)             90.3268         estimate D2E/DX2                !
 ! A36   A(8,19,21)             87.3301         estimate D2E/DX2                !
 ! A37   A(8,19,22)             87.926          estimate D2E/DX2                !
 ! A38   A(14,19,20)            93.8469         estimate D2E/DX2                !
 ! A39   A(14,19,21)            91.0019         estimate D2E/DX2                !
 ! A40   A(14,19,22)            89.4254         estimate D2E/DX2                !
 ! A41   A(20,19,21)           120.8091         estimate D2E/DX2                !
 ! A42   A(20,19,22)           121.3761         estimate D2E/DX2                !
 ! A43   A(21,19,22)           117.6236         estimate D2E/DX2                !
 ! A44   A(11,22,19)            98.6664         estimate D2E/DX2                !
 ! A45   A(14,23,24)           108.0607         estimate D2E/DX2                !
 ! A46   A(14,23,25)           108.8991         estimate D2E/DX2                !
 ! A47   A(14,23,26)           109.9972         estimate D2E/DX2                !
 ! A48   A(24,23,25)           110.3103         estimate D2E/DX2                !
 ! A49   A(24,23,26)           109.3505         estimate D2E/DX2                !
 ! A50   A(25,23,26)           110.1913         estimate D2E/DX2                !
 ! A51   A(28,27,29)           109.428          estimate D2E/DX2                !
 ! A52   A(28,27,30)           107.1377         estimate D2E/DX2                !
 ! A53   A(28,27,42)           106.1358         estimate D2E/DX2                !
 ! A54   A(29,27,30)           113.5695         estimate D2E/DX2                !
 ! A55   A(29,27,42)           111.4061         estimate D2E/DX2                !
 ! A56   A(30,27,42)           108.8133         estimate D2E/DX2                !
 ! A57   A(27,29,31)           109.8037         estimate D2E/DX2                !
 ! A58   A(27,29,32)           108.9896         estimate D2E/DX2                !
 ! A59   A(27,29,33)           113.3753         estimate D2E/DX2                !
 ! A60   A(31,29,32)           106.3047         estimate D2E/DX2                !
 ! A61   A(31,29,33)           108.3866         estimate D2E/DX2                !
 ! A62   A(32,29,33)           109.7396         estimate D2E/DX2                !
 ! A63   A(27,30,34)           118.6359         estimate D2E/DX2                !
 ! A64   A(27,30,35)           116.1526         estimate D2E/DX2                !
 ! A65   A(34,30,35)           125.191          estimate D2E/DX2                !
 ! A66   A(29,33,36)           107.6698         estimate D2E/DX2                !
 ! A67   A(29,33,37)           108.5868         estimate D2E/DX2                !
 ! A68   A(29,33,39)           111.4636         estimate D2E/DX2                !
 ! A69   A(36,33,37)           106.6607         estimate D2E/DX2                !
 ! A70   A(36,33,39)           108.6344         estimate D2E/DX2                !
 ! A71   A(37,33,39)           113.5578         estimate D2E/DX2                !
 ! A72   A(11,35,16)           110.3925         estimate D2E/DX2                !
 ! A73   A(11,35,30)           100.1523         estimate D2E/DX2                !
 ! A74   A(16,35,30)           121.2986         estimate D2E/DX2                !
 ! A75   A(33,37,38)           123.7637         estimate D2E/DX2                !
 ! A76   A(33,37,43)           115.4699         estimate D2E/DX2                !
 ! A77   A(38,37,43)           120.7602         estimate D2E/DX2                !
 ! A78   A(33,39,40)           107.9796         estimate D2E/DX2                !
 ! A79   A(33,39,41)           108.7364         estimate D2E/DX2                !
 ! A80   A(40,39,41)           104.6363         estimate D2E/DX2                !
 ! A81   A(45,44,46)           110.1294         estimate D2E/DX2                !
 ! A82   A(45,44,55)           109.7496         estimate D2E/DX2                !
 ! A83   A(46,44,55)           109.6402         estimate D2E/DX2                !
 ! A84   A(44,46,47)           113.7318         estimate D2E/DX2                !
 ! A85   A(44,46,48)           109.2671         estimate D2E/DX2                !
 ! A86   A(44,46,49)           108.4117         estimate D2E/DX2                !
 ! A87   A(47,46,48)           108.3658         estimate D2E/DX2                !
 ! A88   A(47,46,49)           106.0537         estimate D2E/DX2                !
 ! A89   A(48,46,49)           110.9956         estimate D2E/DX2                !
 ! A90   A(46,48,50)           110.177          estimate D2E/DX2                !
 ! A91   A(46,48,51)           112.7998         estimate D2E/DX2                !
 ! A92   A(46,48,52)           108.724          estimate D2E/DX2                !
 ! A93   A(50,48,51)           108.632          estimate D2E/DX2                !
 ! A94   A(50,48,52)           108.543          estimate D2E/DX2                !
 ! A95   A(51,48,52)           107.8569         estimate D2E/DX2                !
 ! A96   A(46,49,53)           124.066          estimate D2E/DX2                !
 ! A97   A(46,49,54)           115.6206         estimate D2E/DX2                !
 ! A98   A(53,49,54)           120.3065         estimate D2E/DX2                !
 ! A99   A(49,54,56)           110.3375         estimate D2E/DX2                !
 ! A100  A(7,55,20)             73.6997         estimate D2E/DX2                !
 ! A101  A(7,55,44)            152.5021         estimate D2E/DX2                !
 ! A102  A(20,55,44)            83.1977         estimate D2E/DX2                !
 ! A103  L(10,11,35,22,-1)     188.9402         estimate D2E/DX2                !
 ! A104  L(8,19,14,20,-1)      184.1737         estimate D2E/DX2                !
 ! A105  L(19,20,55,1,-1)      168.5591         estimate D2E/DX2                !
 ! A106  L(10,11,35,22,-2)     171.0296         estimate D2E/DX2                !
 ! A107  L(8,19,14,20,-2)      179.4452         estimate D2E/DX2                !
 ! A108  L(19,20,55,1,-2)      172.8302         estimate D2E/DX2                !
 ! D1    D(7,1,4,3)           -178.0127         estimate D2E/DX2                !
 ! D2    D(7,1,4,13)             0.5336         estimate D2E/DX2                !
 ! D3    D(8,1,4,3)              1.6682         estimate D2E/DX2                !
 ! D4    D(8,1,4,13)          -179.7855         estimate D2E/DX2                !
 ! D5    D(4,1,7,55)           179.4235         estimate D2E/DX2                !
 ! D6    D(8,1,7,55)            -0.2286         estimate D2E/DX2                !
 ! D7    D(4,1,8,9)             -2.3807         estimate D2E/DX2                !
 ! D8    D(4,1,8,19)           175.7224         estimate D2E/DX2                !
 ! D9    D(7,1,8,9)            177.2777         estimate D2E/DX2                !
 ! D10   D(7,1,8,19)            -4.6192         estimate D2E/DX2                !
 ! D11   D(5,2,3,4)            179.7471         estimate D2E/DX2                !
 ! D12   D(5,2,3,6)             -0.0737         estimate D2E/DX2                !
 ! D13   D(9,2,3,4)             -0.2613         estimate D2E/DX2                !
 ! D14   D(9,2,3,6)            179.9179         estimate D2E/DX2                !
 ! D15   D(3,2,9,8)             -0.4329         estimate D2E/DX2                !
 ! D16   D(3,2,9,10)           179.9981         estimate D2E/DX2                !
 ! D17   D(5,2,9,8)            179.5588         estimate D2E/DX2                !
 ! D18   D(5,2,9,10)            -0.0102         estimate D2E/DX2                !
 ! D19   D(2,3,4,1)             -0.3782         estimate D2E/DX2                !
 ! D20   D(2,3,4,13)          -178.8309         estimate D2E/DX2                !
 ! D21   D(6,3,4,1)            179.4546         estimate D2E/DX2                !
 ! D22   D(6,3,4,13)             1.0019         estimate D2E/DX2                !
 ! D23   D(1,7,55,20)            5.5861         estimate D2E/DX2                !
 ! D24   D(1,7,55,44)          -28.411          estimate D2E/DX2                !
 ! D25   D(1,8,9,2)              1.8353         estimate D2E/DX2                !
 ! D26   D(1,8,9,10)          -178.5882         estimate D2E/DX2                !
 ! D27   D(19,8,9,2)          -176.3021         estimate D2E/DX2                !
 ! D28   D(19,8,9,10)            3.2743         estimate D2E/DX2                !
 ! D29   D(1,8,19,20)           -0.2974         estimate D2E/DX2                !
 ! D30   D(1,8,19,21)         -121.1265         estimate D2E/DX2                !
 ! D31   D(1,8,19,22)          121.0883         estimate D2E/DX2                !
 ! D32   D(9,8,19,20)          177.8896         estimate D2E/DX2                !
 ! D33   D(9,8,19,21)           57.0606         estimate D2E/DX2                !
 ! D34   D(9,8,19,22)          -60.7246         estimate D2E/DX2                !
 ! D35   D(2,9,10,11)         -171.6627         estimate D2E/DX2                !
 ! D36   D(2,9,10,12)           -7.1333         estimate D2E/DX2                !
 ! D37   D(8,9,10,11)            8.7632         estimate D2E/DX2                !
 ! D38   D(8,9,10,12)          173.2926         estimate D2E/DX2                !
 ! D39   D(9,10,11,22)          12.3512         estimate D2E/DX2                !
 ! D40   D(12,10,11,22)       -153.5798         estimate D2E/DX2                !
 ! D41   D(9,10,35,16)         -78.876          estimate D2E/DX2                !
 ! D42   D(9,10,35,30)         153.3601         estimate D2E/DX2                !
 ! D43   D(12,10,35,16)        119.2484         estimate D2E/DX2                !
 ! D44   D(12,10,35,30)         -8.5154         estimate D2E/DX2                !
 ! D45   D(10,11,22,19)        -76.788          estimate D2E/DX2                !
 ! D46   D(35,11,22,19)        112.1823         estimate D2E/DX2                !
 ! D47   D(22,11,35,16)        -83.4014         estimate D2E/DX2                !
 ! D48   D(22,11,35,30)        147.5766         estimate D2E/DX2                !
 ! D49   D(19,14,15,16)        -60.3272         estimate D2E/DX2                !
 ! D50   D(19,14,15,17)         58.9596         estimate D2E/DX2                !
 ! D51   D(19,14,15,18)        179.9083         estimate D2E/DX2                !
 ! D52   D(23,14,15,16)       -166.7742         estimate D2E/DX2                !
 ! D53   D(23,14,15,17)        -47.4875         estimate D2E/DX2                !
 ! D54   D(23,14,15,18)         73.4613         estimate D2E/DX2                !
 ! D55   D(15,14,19,20)       -131.3851         estimate D2E/DX2                !
 ! D56   D(15,14,19,21)        -10.4151         estimate D2E/DX2                !
 ! D57   D(15,14,19,22)        107.2033         estimate D2E/DX2                !
 ! D58   D(23,14,19,20)        -28.9514         estimate D2E/DX2                !
 ! D59   D(23,14,19,21)         92.0186         estimate D2E/DX2                !
 ! D60   D(23,14,19,22)       -150.363          estimate D2E/DX2                !
 ! D61   D(15,14,23,24)       -176.7224         estimate D2E/DX2                !
 ! D62   D(15,14,23,25)        -56.8851         estimate D2E/DX2                !
 ! D63   D(15,14,23,26)         63.9667         estimate D2E/DX2                !
 ! D64   D(19,14,23,24)         81.6537         estimate D2E/DX2                !
 ! D65   D(19,14,23,25)       -158.5091         estimate D2E/DX2                !
 ! D66   D(19,14,23,26)        -37.6572         estimate D2E/DX2                !
 ! D67   D(14,15,16,35)         11.3209         estimate D2E/DX2                !
 ! D68   D(17,15,16,35)       -107.2238         estimate D2E/DX2                !
 ! D69   D(18,15,16,35)        130.1723         estimate D2E/DX2                !
 ! D70   D(15,16,35,11)         83.8616         estimate D2E/DX2                !
 ! D71   D(15,16,35,30)       -159.6452         estimate D2E/DX2                !
 ! D72   D(8,19,55,7)           -2.8949         estimate D2E/DX2                !
 ! D73   D(8,19,55,44)         163.1751         estimate D2E/DX2                !
 ! D74   D(14,19,55,7)         178.0197         estimate D2E/DX2                !
 ! D75   D(14,19,55,44)        -15.9104         estimate D2E/DX2                !
 ! D76   D(21,19,55,7)          78.679          estimate D2E/DX2                !
 ! D77   D(21,19,55,44)       -115.251          estimate D2E/DX2                !
 ! D78   D(22,19,55,7)         -86.9452         estimate D2E/DX2                !
 ! D79   D(22,19,55,44)         79.1247         estimate D2E/DX2                !
 ! D80   D(8,19,22,11)          65.6077         estimate D2E/DX2                !
 ! D81   D(14,19,22,11)       -111.1188         estimate D2E/DX2                !
 ! D82   D(20,19,22,11)        154.7253         estimate D2E/DX2                !
 ! D83   D(21,19,22,11)        -20.2887         estimate D2E/DX2                !
 ! D84   D(28,27,29,31)        177.1647         estimate D2E/DX2                !
 ! D85   D(28,27,29,32)        -66.7643         estimate D2E/DX2                !
 ! D86   D(28,27,29,33)         55.7738         estimate D2E/DX2                !
 ! D87   D(30,27,29,31)        -63.1807         estimate D2E/DX2                !
 ! D88   D(30,27,29,32)         52.8903         estimate D2E/DX2                !
 ! D89   D(30,27,29,33)        175.4284         estimate D2E/DX2                !
 ! D90   D(42,27,29,31)         60.1127         estimate D2E/DX2                !
 ! D91   D(42,27,29,32)        176.1837         estimate D2E/DX2                !
 ! D92   D(42,27,29,33)        -61.2781         estimate D2E/DX2                !
 ! D93   D(28,27,30,34)        -80.1334         estimate D2E/DX2                !
 ! D94   D(28,27,30,35)         98.3062         estimate D2E/DX2                !
 ! D95   D(29,27,30,34)        158.9171         estimate D2E/DX2                !
 ! D96   D(29,27,30,35)        -22.6433         estimate D2E/DX2                !
 ! D97   D(42,27,30,34)         34.2159         estimate D2E/DX2                !
 ! D98   D(42,27,30,35)       -147.3445         estimate D2E/DX2                !
 ! D99   D(27,29,33,36)        -58.5994         estimate D2E/DX2                !
 ! D100  D(27,29,33,37)       -173.7237         estimate D2E/DX2                !
 ! D101  D(27,29,33,39)         60.4517         estimate D2E/DX2                !
 ! D102  D(31,29,33,36)        179.2181         estimate D2E/DX2                !
 ! D103  D(31,29,33,37)         64.0938         estimate D2E/DX2                !
 ! D104  D(31,29,33,39)        -61.7308         estimate D2E/DX2                !
 ! D105  D(32,29,33,36)         63.5222         estimate D2E/DX2                !
 ! D106  D(32,29,33,37)        -51.602          estimate D2E/DX2                !
 ! D107  D(32,29,33,39)       -177.4267         estimate D2E/DX2                !
 ! D108  D(27,30,35,11)       -173.4408         estimate D2E/DX2                !
 ! D109  D(27,30,35,16)         65.0153         estimate D2E/DX2                !
 ! D110  D(34,30,35,11)          4.8834         estimate D2E/DX2                !
 ! D111  D(34,30,35,16)       -116.6605         estimate D2E/DX2                !
 ! D112  D(29,33,37,38)       -123.0566         estimate D2E/DX2                !
 ! D113  D(29,33,37,43)         56.0461         estimate D2E/DX2                !
 ! D114  D(36,33,37,38)        121.1642         estimate D2E/DX2                !
 ! D115  D(36,33,37,43)        -59.7331         estimate D2E/DX2                !
 ! D116  D(39,33,37,38)          1.5381         estimate D2E/DX2                !
 ! D117  D(39,33,37,43)       -179.3592         estimate D2E/DX2                !
 ! D118  D(29,33,39,40)         58.7693         estimate D2E/DX2                !
 ! D119  D(29,33,39,41)        171.761          estimate D2E/DX2                !
 ! D120  D(36,33,39,40)        177.2443         estimate D2E/DX2                !
 ! D121  D(36,33,39,41)        -69.764          estimate D2E/DX2                !
 ! D122  D(37,33,39,40)        -64.2596         estimate D2E/DX2                !
 ! D123  D(37,33,39,41)         48.7321         estimate D2E/DX2                !
 ! D124  D(45,44,46,47)         67.9753         estimate D2E/DX2                !
 ! D125  D(45,44,46,48)       -170.8077         estimate D2E/DX2                !
 ! D126  D(45,44,46,49)        -49.7172         estimate D2E/DX2                !
 ! D127  D(55,44,46,47)        -52.884          estimate D2E/DX2                !
 ! D128  D(55,44,46,48)         68.3331         estimate D2E/DX2                !
 ! D129  D(55,44,46,49)       -170.5765         estimate D2E/DX2                !
 ! D130  D(45,44,55,7)         164.6395         estimate D2E/DX2                !
 ! D131  D(45,44,55,20)        131.9231         estimate D2E/DX2                !
 ! D132  D(46,44,55,7)         -74.2717         estimate D2E/DX2                !
 ! D133  D(46,44,55,20)       -106.988          estimate D2E/DX2                !
 ! D134  D(44,46,48,50)         66.7532         estimate D2E/DX2                !
 ! D135  D(44,46,48,51)       -171.6662         estimate D2E/DX2                !
 ! D136  D(44,46,48,52)        -52.0822         estimate D2E/DX2                !
 ! D137  D(47,46,48,50)       -168.8262         estimate D2E/DX2                !
 ! D138  D(47,46,48,51)        -47.2456         estimate D2E/DX2                !
 ! D139  D(47,46,48,52)         72.3383         estimate D2E/DX2                !
 ! D140  D(49,46,48,50)        -52.7534         estimate D2E/DX2                !
 ! D141  D(49,46,48,51)         68.8271         estimate D2E/DX2                !
 ! D142  D(49,46,48,52)       -171.5889         estimate D2E/DX2                !
 ! D143  D(44,46,49,53)          3.4331         estimate D2E/DX2                !
 ! D144  D(44,46,49,54)       -177.529          estimate D2E/DX2                !
 ! D145  D(47,46,49,53)       -119.0582         estimate D2E/DX2                !
 ! D146  D(47,46,49,54)         59.9797         estimate D2E/DX2                !
 ! D147  D(48,46,49,53)        123.4501         estimate D2E/DX2                !
 ! D148  D(48,46,49,54)        -57.512          estimate D2E/DX2                !
 ! D149  D(46,49,54,56)          1.1014         estimate D2E/DX2                !
 ! D150  D(53,49,54,56)       -179.8218         estimate D2E/DX2                !
 --------------------------------------------------------------------------------
 Trust Radius=3.00D-01 FncErr=1.00D-07 GrdErr=1.00D-06
 Number of steps in this run=    327 maximum allowed number of steps=    336.
 GradGradGradGradGradGradGradGradGradGradGradGradGradGradGradGradGradGrad

 Symmetry turned off by external request.
 Stoichiometry    C15H29N5O6S
 Framework group  C1[X(C15H29N5O6S)]
 Deg. of freedom   162
 Full point group                 C1      NOp   1
                          Input orientation:                          
 ---------------------------------------------------------------------
 Center     Atomic      Atomic             Coordinates (Angstroms)
 Number     Number       Type             X           Y           Z
 ---------------------------------------------------------------------
      1          6           0        0.242771    3.730687    1.430686
      2          6           0       -1.440649    4.736090   -0.577475
      3          6           0       -1.072820    5.521803    0.453456
      4          7           0       -0.252652    5.040497    1.429606
      5          1           0       -2.093451    5.091319   -1.363121
      6          1           0       -1.400407    6.549272    0.563670
      7          8           0        0.946217    3.370130    2.369730
      8          7           0       -0.106424    2.948762    0.377400
      9          6           0       -0.927516    3.381648   -0.601842
     10          7           0       -1.244731    2.560694   -1.576402
     11          1           0       -1.020464    1.512791   -1.617738
     12          1           0       -1.934791    2.809083   -2.276379
     13          1           0        0.022365    5.605898    2.221131
     14         16           0        1.427571   -1.067156   -0.100076
     15          6           0        1.911348   -0.930380   -1.837274
     16          1           0        0.994678   -0.672021   -2.372678
     17          1           0        2.662117   -0.142954   -1.949924
     18          1           0        2.315544   -1.883392   -2.184664
     19          6           0        0.674300    1.046982    0.210505
     20          1           0        1.236673    1.190855    1.125438
     21          1           0        1.081844    1.352827   -0.744845
     22          1           0       -0.337751    0.672510    0.226007
     23          6           0        3.065314   -1.083506    0.672303
     24          1           0        2.931550   -1.223539    1.745894
     25          1           0        3.646463   -1.907284    0.252024
     26          1           0        3.573457   -0.132459    0.491547
     27          6           0       -2.361381   -1.616187   -3.020253
     28          1           0       -3.217793   -1.883170   -2.385635
     29          6           0       -1.239782   -2.624612   -2.808131
     30          6           0       -1.967405   -0.177291   -2.665633
     31          1           0       -0.397993   -2.392504   -3.478139
     32          1           0       -0.856839   -2.522469   -1.786058
     33          6           0       -1.670372   -4.074422   -3.057156
     34          8           0       -2.620986    0.752508   -3.151122
     35          8           0       -0.982295   -0.043830   -1.846225
     36          1           0       -2.503272   -4.298490   -2.371266
     37          6           0       -0.525430   -4.993439   -2.666814
     38          8           0       -0.017947   -5.789506   -3.418874
     39          7           0       -2.128823   -4.265699   -4.421984
     40          1           0       -1.365435   -4.011519   -5.049137
     41          1           0       -2.273026   -5.261763   -4.582322
     42          1           0       -2.727466   -1.637744   -4.048834
     43          1           0       -0.156357   -4.881325   -1.623062
     44          7           0        2.126423    0.772620    3.197812
     45          1           0        3.063753    0.606835    3.555912
     46          6           0        1.141286    0.218837    4.104158
     47          1           0        1.084027    0.745627    5.075625
     48          6           0       -0.241324    0.272733    3.443063
     49          6           0        1.537406   -1.218815    4.426502
     50          1           0       -0.274588   -0.401997    2.581957
     51          1           0       -1.051025    0.003695    4.129944
     52          1           0       -0.423579    1.292864    3.092901
     53          8           0        2.542394   -1.745315    4.029801
     54          8           0        0.685651   -1.893090    5.223828
     55          1           0        1.970075    1.774829    3.092363
     56          1           0       -0.073061   -1.335682    5.453991
 ---------------------------------------------------------------------
 Rotational constants (GHZ):      0.1642007      0.1022011      0.0703016
 Standard basis: 6-31G(d) (6D, 7F)
   467 basis functions,   896 primitive gaussians,   467 cartesian basis functions
   109 alpha electrons      109 beta electrons
       nuclear repulsion energy      2815.7550123276 Hartrees.
 NAtoms=   56 NActive=   56 NUniq=   56 SFac= 1.00D+00 NAtFMM=   60 NAOKFM=F Big=F
 Integral buffers will be    131072 words long.
 Raffenetti 2 integral format.
 Two-electron integral symmetry is turned off.
 One-electron integrals computed using PRISM.
 NBasis=   467 RedAO= T EigKep=  1.11D-03  NBF=   467
 NBsUse=   467 1.00D-06 EigRej= -1.00D+00 NBFU=   467
 ExpMin= 1.17D-01 ExpMax= 2.19D+04 ExpMxC= 3.30D+03 IAcc=3 IRadAn=         5 AccDes= 0.00D+00
 Harris functional with IExCor= 1009 and IRadAn=       5 diagonalized for initial guess.
 HarFok:  IExCor= 1009 AccDes= 0.00D+00 IRadAn=         5 IDoV= 1 UseB2=F ITyADJ=14
 ICtDFT=  3500011 ScaDFX=  1.000000  1.000000  1.000000  1.000000
 FoFCou: FMM=F IPFlag=           0 FMFlag=      100000 FMFlg1=           0
         NFxFlg=           0 DoJE=T BraDBF=F KetDBF=T FulRan=T
         wScrn=  0.000000 ICntrl=     500 IOpCl=  0 I1Cent=   200000004 NGrid=           0
         NMat0=    1 NMatS0=      1 NMatT0=    0 NMatD0=    1 NMtDS0=    0 NMtDT0=    0
 Symmetry not used in FoFCou.
 Requested convergence on RMS density matrix=1.00D-08 within 128 cycles.
 Requested convergence on MAX density matrix=1.00D-06.
 Requested convergence on             energy=1.00D-06.
 No special actions if energy rises.
 Integral accuracy reduced to 1.0D-05 until final iterations.
 Initial convergence to 1.0D-05 achieved.  Increase integral accuracy.
 SCF Done:  E(RM062X) =  -1711.71181705     A.U. after   15 cycles
            NFock= 15  Conv=0.73D-08     -V/T= 2.0071

 **********************************************************************

            Population analysis using the SCF density.

 **********************************************************************

 Alpha  occ. eigenvalues --  -89.95775 -19.69513 -19.63888 -19.63531 -19.62245
 Alpha  occ. eigenvalues --  -19.56135 -19.54426 -14.83565 -14.77935 -14.77159
 Alpha  occ. eigenvalues --  -14.74674 -14.72611 -10.69980 -10.68997 -10.66471
 Alpha  occ. eigenvalues --  -10.64162 -10.62275 -10.61420 -10.60490 -10.60361
 Alpha  occ. eigenvalues --  -10.57832 -10.57474 -10.57415 -10.56688 -10.55979
 Alpha  occ. eigenvalues --  -10.53106 -10.50872  -8.30208  -6.22196  -6.22004
 Alpha  occ. eigenvalues --   -6.21722  -1.23797  -1.19179  -1.16206  -1.14958
 Alpha  occ. eigenvalues --   -1.12006  -1.10292  -1.06900  -1.02060  -1.00789
 Alpha  occ. eigenvalues --   -0.98897  -0.98387  -0.92362  -0.89939  -0.85653
 Alpha  occ. eigenvalues --   -0.85644  -0.81333  -0.80568  -0.78121  -0.76374
 Alpha  occ. eigenvalues --   -0.75567  -0.75469  -0.70122  -0.69325  -0.68454
 Alpha  occ. eigenvalues --   -0.66589  -0.64953  -0.63532  -0.61963  -0.61419
 Alpha  occ. eigenvalues --   -0.58115  -0.57239  -0.56184  -0.56133  -0.55964
 Alpha  occ. eigenvalues --   -0.55525  -0.54829  -0.54317  -0.53375  -0.53125
 Alpha  occ. eigenvalues --   -0.52457  -0.52079  -0.52036  -0.51321  -0.51191
 Alpha  occ. eigenvalues --   -0.50539  -0.50369  -0.49710  -0.49273  -0.48067
 Alpha  occ. eigenvalues --   -0.47940  -0.47102  -0.46569  -0.46398  -0.45645
 Alpha  occ. eigenvalues --   -0.45348  -0.45173  -0.44799  -0.44259  -0.43674
 Alpha  occ. eigenvalues --   -0.42923  -0.42398  -0.41799  -0.39569  -0.39548
 Alpha  occ. eigenvalues --   -0.38732  -0.37801  -0.37145  -0.36343  -0.35200
 Alpha  occ. eigenvalues --   -0.33247  -0.32139  -0.31738  -0.30610  -0.29856
 Alpha  occ. eigenvalues --   -0.29030  -0.28716  -0.28504  -0.26586
 Alpha virt. eigenvalues --   -0.00819   0.02993   0.03861   0.04198   0.04993
 Alpha virt. eigenvalues --    0.06540   0.08389   0.09708   0.10307   0.11914
 Alpha virt. eigenvalues --    0.13185   0.14204   0.14529   0.15134   0.15747
 Alpha virt. eigenvalues --    0.16359   0.16667   0.17297   0.17643   0.17936
 Alpha virt. eigenvalues --    0.18085   0.18586   0.19299   0.19483   0.20102
 Alpha virt. eigenvalues --    0.20183   0.20803   0.21399   0.22141   0.22266
 Alpha virt. eigenvalues --    0.22921   0.23321   0.23716   0.23996   0.25051
 Alpha virt. eigenvalues --    0.25779   0.26417   0.26706   0.27754   0.28147
 Alpha virt. eigenvalues --    0.28904   0.28973   0.30233   0.30876   0.32168
 Alpha virt. eigenvalues --    0.32740   0.34251   0.35070   0.36660   0.38807
 Alpha virt. eigenvalues --    0.39170   0.39349   0.39860   0.40584   0.42001
 Alpha virt. eigenvalues --    0.42391   0.42632   0.44430   0.45274   0.47340
 Alpha virt. eigenvalues --    0.48414   0.50059   0.50110   0.51830   0.53026
 Alpha virt. eigenvalues --    0.54259   0.55067   0.55635   0.57487   0.58234
 Alpha virt. eigenvalues --    0.58453   0.59226   0.60235   0.61086   0.61294
 Alpha virt. eigenvalues --    0.61454   0.62465   0.63136   0.63476   0.64072
 Alpha virt. eigenvalues --    0.64734   0.65349   0.65963   0.66329   0.66741
 Alpha virt. eigenvalues --    0.67553   0.68313   0.69381   0.69859   0.70510
 Alpha virt. eigenvalues --    0.70677   0.71127   0.71949   0.73162   0.73932
 Alpha virt. eigenvalues --    0.74179   0.75057   0.75579   0.76337   0.77362
 Alpha virt. eigenvalues --    0.78002   0.78877   0.80010   0.80534   0.81483
 Alpha virt. eigenvalues --    0.82219   0.82530   0.82881   0.83231   0.83966
 Alpha virt. eigenvalues --    0.85219   0.85598   0.86736   0.87255   0.87880
 Alpha virt. eigenvalues --    0.88086   0.89120   0.89504   0.90283   0.91214
 Alpha virt. eigenvalues --    0.91394   0.92131   0.92358   0.92689   0.92862
 Alpha virt. eigenvalues --    0.93469   0.93565   0.93989   0.94900   0.95679
 Alpha virt. eigenvalues --    0.96383   0.96581   0.97042   0.97863   0.98272
 Alpha virt. eigenvalues --    0.98579   0.99182   1.00031   1.00108   1.00855
 Alpha virt. eigenvalues --    1.00897   1.01749   1.02013   1.02681   1.02906
 Alpha virt. eigenvalues --    1.03861   1.04333   1.04813   1.05215   1.06004
 Alpha virt. eigenvalues --    1.06559   1.07023   1.07260   1.08252   1.09319
 Alpha virt. eigenvalues --    1.09921   1.10507   1.11374   1.12139   1.12920
 Alpha virt. eigenvalues --    1.13085   1.14252   1.15795   1.16266   1.16833
 Alpha virt. eigenvalues --    1.17608   1.18064   1.19711   1.19775   1.21491
 Alpha virt. eigenvalues --    1.24892   1.25718   1.26664   1.27267   1.29538
 Alpha virt. eigenvalues --    1.30598   1.31748   1.33088   1.34182   1.35004
 Alpha virt. eigenvalues --    1.36511   1.37470   1.38384   1.38983   1.40637
 Alpha virt. eigenvalues --    1.41026   1.42741   1.43569   1.45154   1.45398
 Alpha virt. eigenvalues --    1.47135   1.47576   1.48779   1.48856   1.50258
 Alpha virt. eigenvalues --    1.51099   1.51942   1.52233   1.53584   1.56815
 Alpha virt. eigenvalues --    1.57572   1.59038   1.59559   1.60530   1.61498
 Alpha virt. eigenvalues --    1.64826   1.65798   1.68070   1.69833   1.70143
 Alpha virt. eigenvalues --    1.70952   1.71752   1.72429   1.72843   1.73779
 Alpha virt. eigenvalues --    1.75493   1.76142   1.76408   1.77891   1.78915
 Alpha virt. eigenvalues --    1.79412   1.80003   1.80360   1.80885   1.82676
 Alpha virt. eigenvalues --    1.83156   1.84419   1.84995   1.85374   1.85665
 Alpha virt. eigenvalues --    1.86265   1.86690   1.86968   1.88337   1.88535
 Alpha virt. eigenvalues --    1.91428   1.92104   1.92838   1.94705   1.95097
 Alpha virt. eigenvalues --    1.95552   1.96274   1.97015   1.97360   1.98914
 Alpha virt. eigenvalues --    1.99462   2.00909   2.02673   2.03797   2.04544
 Alpha virt. eigenvalues --    2.05454   2.06250   2.06595   2.07160   2.07692
 Alpha virt. eigenvalues --    2.08873   2.10041   2.10478   2.13186   2.13476
 Alpha virt. eigenvalues --    2.14605   2.16475   2.16821   2.17220   2.20448
 Alpha virt. eigenvalues --    2.21209   2.21690   2.22593   2.23110   2.23689
 Alpha virt. eigenvalues --    2.25581   2.26891   2.26914   2.28255   2.28702
 Alpha virt. eigenvalues --    2.29566   2.30272   2.30408   2.31033   2.32078
 Alpha virt. eigenvalues --    2.33473   2.34880   2.35220   2.36326   2.37669
 Alpha virt. eigenvalues --    2.40963   2.41627   2.44106   2.45988   2.47449
 Alpha virt. eigenvalues --    2.48413   2.49129   2.49769   2.52331   2.53710
 Alpha virt. eigenvalues --    2.55374   2.56947   2.59084   2.59166   2.60562
 Alpha virt. eigenvalues --    2.63042   2.63424   2.64678   2.65801   2.66652
 Alpha virt. eigenvalues --    2.67635   2.68369   2.70657   2.71581   2.71766
 Alpha virt. eigenvalues --    2.74069   2.77124   2.78358   2.79671   2.81658
 Alpha virt. eigenvalues --    2.83693   2.83785   2.89165   2.91966   2.94191
 Alpha virt. eigenvalues --    2.97089   3.02644   3.03663   3.05861   3.06508
 Alpha virt. eigenvalues --    3.07250   3.09424   3.14141   3.24266   3.27066
 Alpha virt. eigenvalues --    3.43020   3.79807   3.87054   3.95301   3.95872
 Alpha virt. eigenvalues --    3.97756   3.98951   4.01802   4.05461   4.11798
 Alpha virt. eigenvalues --    4.12560   4.18808   4.21022   4.25202   4.26147
 Alpha virt. eigenvalues --    4.28124   4.29097   4.31096   4.32609   4.35147
 Alpha virt. eigenvalues --    4.38040   4.38950   4.43683   4.55089   4.57255
 Alpha virt. eigenvalues --    4.61989   4.63009   4.68714
          Condensed to atoms (all electrons):
 Mulliken charges:
               1
     1  C    0.804748
     2  C   -0.250122
     3  C    0.107289
     4  N   -0.699093
     5  H    0.198300
     6  H    0.214116
     7  O   -0.583011
     8  N   -0.659762
     9  C    0.624434
    10  N   -0.849216
    11  H    0.448235
    12  H    0.383749
    13  H    0.378393
    14  S    0.272340
    15  C   -0.658551
    16  H    0.273866
    17  H    0.187254
    18  H    0.205735
    19  C   -0.426278
    20  H    0.260231
    21  H    0.225918
    22  H    0.262766
    23  C   -0.637917
    24  H    0.259189
    25  H    0.199531
    26  H    0.188098
    27  C   -0.366091
    28  H    0.162718
    29  C   -0.308820
    30  C    0.628882
    31  H    0.139669
    32  H    0.171564
    33  C   -0.096499
    34  O   -0.606031
    35  O   -0.692801
    36  H    0.169285
    37  C    0.242666
    38  O   -0.409167
    39  N   -0.727985
    40  H    0.313347
    41  H    0.323112
    42  H    0.191437
    43  H    0.118321
    44  N   -0.800081
    45  H    0.333166
    46  C   -0.115286
    47  H    0.163143
    48  C   -0.497397
    49  C    0.637524
    50  H    0.189259
    51  H    0.146252
    52  H    0.199995
    53  O   -0.456354
    54  O   -0.599473
    55  H    0.380287
    56  H    0.435118
 Sum of Mulliken charges =  -0.00000
 Mulliken charges with hydrogens summed into heavy atoms:
               1
     1  C    0.804748
     2  C   -0.051821
     3  C    0.321405
     4  N   -0.320701
     7  O   -0.583011
     8  N   -0.659762
     9  C    0.624434
    10  N   -0.017232
    14  S    0.272340
    15  C    0.008304
    19  C    0.322636
    23  C    0.008901
    27  C   -0.011936
    29  C    0.002412
    30  C    0.628882
    33  C    0.072787
    34  O   -0.606031
    35  O   -0.692801
    37  C    0.360987
    38  O   -0.409167
    39  N   -0.091527
    44  N   -0.086628
    46  C    0.047857
    48  C    0.038109
    49  C    0.637524
    53  O   -0.456354
    54  O   -0.164355
 Electronic spatial extent (au):  <R**2>=          14985.0359
 Charge=             -0.0000 electrons
 Dipole moment (field-independent basis, Debye):
    X=              1.7344    Y=              9.0011    Z=              5.9410  Tot=             10.9235
 Quadrupole moment (field-independent basis, Debye-Ang):
   XX=           -175.0766   YY=           -146.8425   ZZ=           -177.8505
   XY=              0.0195   XZ=            -26.0341   YZ=              6.6296
 Traceless Quadrupole moment (field-independent basis, Debye-Ang):
   XX=             -8.4868   YY=             19.7474   ZZ=            -11.2606
   XY=              0.0195   XZ=            -26.0341   YZ=              6.6296
 Octapole moment (field-independent basis, Debye-Ang**2):
  XXX=             60.5670  YYY=            399.3484  ZZZ=            147.7628  XYY=           -107.4539
  XXY=             14.1091  XXZ=             37.0061  XZZ=             12.7223  YZZ=             87.7877
  YYZ=             68.0736  XYZ=             23.4892
 Hexadecapole moment (field-independent basis, Debye-Ang**3):
 XXXX=          -2776.8568 YYYY=          -7811.3992 ZZZZ=          -7316.1092 XXXY=             82.7242
 XXXZ=          -1538.4250 YYYX=            -29.6239 YYYZ=          -1412.1612 ZZZX=          -1768.8053
 ZZZY=          -1175.5798 XXYY=          -1868.2387 XXZZ=          -1967.3022 YYZZ=          -3031.3106
 XXYZ=           -421.9343 YYXZ=           -416.6279 ZZXY=            166.9361
 N-N= 2.815755012328D+03 E-N=-9.644276730175D+03  KE= 1.699707568496D+03
 Calling FoFJK, ICntrl=      2127 FMM=F ISym2X=0 I1Cent= 0 IOpClX= 0 NMat=1 NMatS=1 NMatT=0.
 -------------------------------------------------------------------
 Center     Atomic                   Forces (Hartrees/Bohr)
 Number     Number              X              Y              Z
 -------------------------------------------------------------------
      1        6          -0.000000107   -0.000000172   -0.000000241
      2        6           0.000000124   -0.000000570   -0.000001554
      3        6          -0.000000337    0.000000684   -0.000001247
      4        7          -0.000000656    0.000000416   -0.000001156
      5        1           0.000000274   -0.000000247   -0.000002032
      6        1          -0.000000327    0.000000029   -0.000001913
      7        8          -0.000001266    0.000000695   -0.000000709
      8        7          -0.000000103    0.000000442   -0.000000100
      9        6          -0.000000070   -0.000000237   -0.000001647
     10        7           0.000000188   -0.000000458   -0.000001386
     11        1           0.000000500   -0.000000104   -0.000000670
     12        1           0.000001002   -0.000000578   -0.000001084
     13        1          -0.000000995    0.000000344   -0.000001290
     14       16           0.000000183    0.000000153    0.000000538
     15        6           0.000000905   -0.000000901    0.000001245
     16        1           0.000000607   -0.000000330    0.000000359
     17        1           0.000000790   -0.000000149    0.000000969
     18        1           0.000000711   -0.000000208    0.000001321
     19        6           0.000000358    0.000000231    0.000000012
     20        1          -0.000000611    0.000000260    0.000000150
     21        1           0.000000236   -0.000000117    0.000000161
     22        1          -0.000000447   -0.000000124   -0.000000252
     23        6          -0.000000467   -0.000000323    0.000001340
     24        1          -0.000000574    0.000000485    0.000001224
     25        1          -0.000000175    0.000000324    0.000001877
     26        1          -0.000000123    0.000000432    0.000001303
     27        6           0.000000954   -0.000000409   -0.000000410
     28        1           0.000000907   -0.000000518   -0.000000885
     29        6           0.000001189   -0.000000162   -0.000000103
     30        6           0.000000538   -0.000000478   -0.000001388
     31        1           0.000001288   -0.000000818    0.000000449
     32        1           0.000000777   -0.000000365    0.000000445
     33        6           0.000001028   -0.000000918   -0.000000159
     34        8           0.000001468   -0.000001170   -0.000000767
     35        8           0.000000777   -0.000000307   -0.000000189
     36        1           0.000000975   -0.000000521    0.000000018
     37        6           0.000001704   -0.000000754    0.000000697
     38        8           0.000001031   -0.000000348    0.000001671
     39        7           0.000001639   -0.000001352   -0.000000123
     40        1           0.000001816   -0.000001142    0.000000437
     41        1           0.000001885   -0.000000521    0.000000364
     42        1           0.000001556   -0.000000876   -0.000000652
     43        1           0.000000353   -0.000000562    0.000000826
     44        7          -0.000001982    0.000001450    0.000000540
     45        1          -0.000000933    0.000000741    0.000001175
     46        6          -0.000001171    0.000000990    0.000000199
     47        1          -0.000001931    0.000001131    0.000000313
     48        6          -0.000001583    0.000000635   -0.000000132
     49        6          -0.000001622    0.000000983    0.000000577
     50        1          -0.000000962    0.000000618    0.000000030
     51        1          -0.000001505    0.000000895   -0.000000480
     52        1          -0.000001192    0.000000659   -0.000000484
     53        8          -0.000001516    0.000000911    0.000001392
     54        8          -0.000001941    0.000000998    0.000000780
     55        1          -0.000001096    0.000000032    0.000000388
     56        1          -0.000002076    0.000001199    0.000000254
 -------------------------------------------------------------------
 Cartesian Forces:  Max     0.000002076 RMS     0.000000912

 GradGradGradGradGradGradGradGradGradGradGradGradGradGradGradGradGradGrad
 Berny optimization.
 FormGI is forming the generalized inverse of G from B-inverse, IUseBI=4.
 Internal  Forces:  Max     0.000000687 RMS     0.000000138
 Search for a local minimum.
 Step number   1 out of a maximum of  327
 All quantities printed in internal units (Hartrees-Bohrs-Radians)
 Mixed Optimization -- En-DIIS/RFO-DIIS
 Second derivative matrix not updated -- first step.
 ITU=  0
     Eigenvalues ---    0.00230   0.00236   0.00323   0.00324   0.00333
     Eigenvalues ---    0.00426   0.00460   0.00512   0.00513   0.00535
     Eigenvalues ---    0.00607   0.00659   0.00766   0.00870   0.00887
     Eigenvalues ---    0.00998   0.01030   0.01048   0.01222   0.01563
     Eigenvalues ---    0.01622   0.01786   0.01943   0.01961   0.02081
     Eigenvalues ---    0.02180   0.02271   0.02307   0.02386   0.02426
     Eigenvalues ---    0.02535   0.02691   0.02845   0.03127   0.03170
     Eigenvalues ---    0.03285   0.03359   0.03482   0.03850   0.03909
     Eigenvalues ---    0.04204   0.04370   0.04748   0.04793   0.04836
     Eigenvalues ---    0.04893   0.04950   0.05130   0.05305   0.05364
     Eigenvalues ---    0.05445   0.05771   0.05803   0.05897   0.06314
     Eigenvalues ---    0.06401   0.06440   0.06810   0.07235   0.07434
     Eigenvalues ---    0.07479   0.07623   0.07794   0.08212   0.08478
     Eigenvalues ---    0.08567   0.09460   0.09543   0.10457   0.10636
     Eigenvalues ---    0.11396   0.11405   0.12039   0.12305   0.12834
     Eigenvalues ---    0.12938   0.14310   0.15455   0.15995   0.16000
     Eigenvalues ---    0.16000   0.16000   0.16000   0.16000   0.16000
     Eigenvalues ---    0.16000   0.16000   0.16000   0.16000   0.16000
     Eigenvalues ---    0.16000   0.16000   0.16839   0.17091   0.17252
     Eigenvalues ---    0.17932   0.18182   0.18244   0.19040   0.21913
     Eigenvalues ---    0.21936   0.22000   0.22016   0.22339   0.23283
     Eigenvalues ---    0.23926   0.24594   0.24991   0.24998   0.25000
     Eigenvalues ---    0.25000   0.25283   0.29104   0.29109   0.29169
     Eigenvalues ---    0.29827   0.30068   0.30447   0.32221   0.32311
     Eigenvalues ---    0.32964   0.33463   0.33596   0.33612   0.33810
     Eigenvalues ---    0.34103   0.34201   0.34301   0.34362   0.34372
     Eigenvalues ---    0.34378   0.34431   0.34556   0.34583   0.34592
     Eigenvalues ---    0.34668   0.34707   0.35510   0.35665   0.35817
     Eigenvalues ---    0.37062   0.37930   0.38420   0.43808   0.44315
     Eigenvalues ---    0.44370   0.44434   0.44476   0.44819   0.45337
     Eigenvalues ---    0.45830   0.50583   0.51858   0.53543   0.54560
     Eigenvalues ---    0.55548   0.59569   0.70554   0.87840   0.88681
     Eigenvalues ---    1.01382   1.03872
 RFO step:  Lambda= 0.00000000D+00 EMin= 2.30000000D-03
 Linear search not attempted -- first point.
 Iteration  1 RMS(Cart)=  0.00006290 RMS(Int)=  0.00000000
 Iteration  2 RMS(Cart)=  0.00000000 RMS(Int)=  0.00000000
 Variable       Old X    -DE/DX   Delta X   Delta X   Delta X     New X
                                 (Linear)    (Quad)   (Total)
    R1        2.64632   0.00000   0.00000   0.00000   0.00000   2.64632
    R2        2.31955  -0.00000   0.00000  -0.00000  -0.00000   2.31955
    R3        2.56527  -0.00000   0.00000  -0.00000  -0.00000   2.56527
    R4        2.54620   0.00000   0.00000   0.00000   0.00000   2.54620
    R5        2.04368   0.00000   0.00000   0.00000   0.00000   2.04368
    R6        2.73744  -0.00000   0.00000  -0.00000  -0.00000   2.73744
    R7        2.57530   0.00000   0.00000   0.00000   0.00000   2.57530
    R8        2.04855  -0.00000   0.00000  -0.00000  -0.00000   2.04855
    R9        1.91024  -0.00000   0.00000  -0.00000  -0.00000   1.91024
   R10        3.83362   0.00000   0.00000   0.00000   0.00000   3.83362
   R11        2.54973   0.00000   0.00000   0.00000   0.00000   2.54973
   R12        3.89767   0.00000   0.00000   0.00000   0.00000   3.89767
   R13        2.48149   0.00000   0.00000   0.00000   0.00000   2.48149
   R14        2.02660  -0.00000   0.00000  -0.00000  -0.00000   2.02660
   R15        1.91586  -0.00000   0.00000  -0.00000  -0.00000   1.91586
   R16        4.04046   0.00000   0.00000  -0.00000  -0.00000   4.04046
   R17        2.97398  -0.00000   0.00000   0.00000   0.00000   2.97398
   R18        3.41753  -0.00000   0.00000  -0.00000  -0.00000   3.41753
   R19        4.28158   0.00000   0.00000  -0.00000  -0.00000   4.28158
   R20        3.42194  -0.00000   0.00000  -0.00000  -0.00000   3.42194
   R21        2.06464   0.00000   0.00000   0.00000   0.00000   2.06464
   R22        2.06697   0.00000   0.00000   0.00000   0.00000   2.06697
   R23        2.06343  -0.00000   0.00000  -0.00000  -0.00000   2.06343
   R24        4.04428   0.00000   0.00000   0.00000   0.00000   4.04428
   R25        2.04760  -0.00000   0.00000  -0.00000  -0.00000   2.04760
   R26        2.04608  -0.00000   0.00000  -0.00000  -0.00000   2.04608
   R27        2.03943   0.00000   0.00000   0.00000   0.00000   2.03943
   R28        4.11756  -0.00000   0.00000  -0.00000  -0.00000   4.11756
   R29        2.06153  -0.00000   0.00000  -0.00000  -0.00000   2.06153
   R30        2.06403  -0.00000   0.00000  -0.00000  -0.00000   2.06403
   R31        2.06610   0.00000   0.00000   0.00000   0.00000   2.06610
   R32        2.07652  -0.00000   0.00000  -0.00000  -0.00000   2.07652
   R33        2.87828   0.00000   0.00000   0.00000   0.00000   2.87828
   R34        2.89775  -0.00000   0.00000  -0.00000  -0.00000   2.89775
   R35        2.06358  -0.00000   0.00000  -0.00000  -0.00000   2.06358
   R36        2.07990  -0.00000   0.00000  -0.00000  -0.00000   2.07990
   R37        2.07157   0.00000   0.00000   0.00000   0.00000   2.07157
   R38        2.89651   0.00000   0.00000   0.00000   0.00000   2.89651
   R39        2.33547  -0.00000   0.00000  -0.00000  -0.00000   2.33547
   R40        2.43451   0.00000   0.00000   0.00000   0.00000   2.43451
   R41        2.08245   0.00000   0.00000   0.00000   0.00000   2.08245
   R42        2.87080   0.00000   0.00000   0.00000   0.00000   2.87080
   R43        2.74467   0.00000   0.00000   0.00000   0.00000   2.74467
   R44        2.28090  -0.00000   0.00000  -0.00000  -0.00000   2.28090
   R45        2.10278  -0.00000   0.00000  -0.00000  -0.00000   2.10278
   R46        1.92779  -0.00000   0.00000  -0.00000  -0.00000   1.92779
   R47        1.92590  -0.00000   0.00000  -0.00000  -0.00000   1.92589
   R48        1.92187   0.00000   0.00000   0.00000   0.00000   1.92187
   R49        2.73758  -0.00000   0.00000  -0.00000  -0.00000   2.73758
   R50        1.92714  -0.00000   0.00000  -0.00000  -0.00000   1.92714
   R51        2.09115   0.00000   0.00000   0.00000   0.00000   2.09115
   R52        2.89786   0.00000   0.00000   0.00000   0.00000   2.89786
   R53        2.88309   0.00000   0.00000   0.00000   0.00000   2.88309
   R54        2.06825  -0.00000   0.00000  -0.00000  -0.00000   2.06825
   R55        2.06992  -0.00000   0.00000  -0.00000  -0.00000   2.06992
   R56        2.06707   0.00000   0.00000   0.00000   0.00000   2.06707
   R57        2.27127  -0.00000   0.00000  -0.00000  -0.00000   2.27127
   R58        2.54648   0.00000   0.00000   0.00000   0.00000   2.54648
   R59        1.83150   0.00000   0.00000   0.00000   0.00000   1.83150
    A1        2.06927   0.00000   0.00000  -0.00000  -0.00000   2.06927
    A2        2.03438  -0.00000   0.00000  -0.00000  -0.00000   2.03438
    A3        2.17952   0.00000   0.00000   0.00000   0.00000   2.17952
    A4        2.12831  -0.00000   0.00000  -0.00000  -0.00000   2.12831
    A5        2.05037   0.00000   0.00000   0.00000   0.00000   2.05038
    A6        2.10450  -0.00000   0.00000  -0.00000  -0.00000   2.10450
    A7        2.10180  -0.00000   0.00000  -0.00000  -0.00000   2.10180
    A8        2.15076   0.00000   0.00000   0.00000   0.00000   2.15077
    A9        2.03062   0.00000   0.00000   0.00000   0.00000   2.03062
   A10        2.14576   0.00000   0.00000   0.00000   0.00000   2.14576
   A11        2.01120  -0.00000   0.00000  -0.00000  -0.00000   2.01120
   A12        2.12594  -0.00000   0.00000  -0.00000  -0.00000   2.12594
   A13        2.48610   0.00000   0.00000   0.00000   0.00000   2.48610
   A14        2.13515   0.00000   0.00000   0.00000   0.00000   2.13515
   A15        2.09039  -0.00000   0.00000  -0.00000  -0.00000   2.09039
   A16        2.05720  -0.00000   0.00000  -0.00000  -0.00000   2.05720
   A17        2.09826  -0.00000   0.00000  -0.00000  -0.00000   2.09825
   A18        2.10768   0.00000   0.00000  -0.00000  -0.00000   2.10768
   A19        2.07723   0.00000   0.00000   0.00000   0.00000   2.07723
   A20        2.20058  -0.00000   0.00000  -0.00000  -0.00000   2.20058
   A21        2.12194   0.00000   0.00000   0.00000   0.00000   2.12194
   A22        1.93384   0.00000   0.00000   0.00000   0.00000   1.93384
   A23        2.00154   0.00000   0.00000  -0.00000  -0.00000   2.00154
   A24        1.29609  -0.00000   0.00000   0.00000   0.00000   1.29609
   A25        1.72141   0.00000   0.00000   0.00000   0.00000   1.72141
   A26        1.74007  -0.00000   0.00000  -0.00000  -0.00000   1.74007
   A27        1.82414   0.00000   0.00000   0.00000   0.00000   1.82414
   A28        1.83814  -0.00000   0.00000   0.00000   0.00000   1.83815
   A29        1.91451   0.00000   0.00000  -0.00000  -0.00000   1.91451
   A30        1.91625   0.00000   0.00000  -0.00000  -0.00000   1.91625
   A31        1.93391  -0.00000   0.00000  -0.00000  -0.00000   1.93390
   A32        1.94020   0.00000   0.00000  -0.00000  -0.00000   1.94020
   A33        1.91928   0.00000   0.00000   0.00000   0.00000   1.91928
   A34        2.38025   0.00000   0.00000   0.00000   0.00000   2.38025
   A35        1.57650  -0.00000   0.00000  -0.00000  -0.00000   1.57650
   A36        1.52420   0.00000   0.00000   0.00000   0.00000   1.52420
   A37        1.53460   0.00000   0.00000  -0.00000  -0.00000   1.53460
   A38        1.63794  -0.00000   0.00000  -0.00000  -0.00000   1.63794
   A39        1.58828   0.00000   0.00000   0.00000   0.00000   1.58828
   A40        1.56077  -0.00000   0.00000  -0.00000  -0.00000   1.56077
   A41        2.10852  -0.00000   0.00000   0.00000   0.00000   2.10852
   A42        2.11841   0.00000   0.00000  -0.00000  -0.00000   2.11841
   A43        2.05292  -0.00000   0.00000   0.00000   0.00000   2.05292
   A44        1.72205  -0.00000   0.00000  -0.00000  -0.00000   1.72205
   A45        1.88602   0.00000   0.00000   0.00000   0.00000   1.88602
   A46        1.90065   0.00000   0.00000   0.00000   0.00000   1.90065
   A47        1.91981  -0.00000   0.00000  -0.00000  -0.00000   1.91981
   A48        1.92528  -0.00000   0.00000  -0.00000  -0.00000   1.92528
   A49        1.90853  -0.00000   0.00000  -0.00000  -0.00000   1.90853
   A50        1.92320  -0.00000   0.00000  -0.00000  -0.00000   1.92320
   A51        1.90988  -0.00000   0.00000  -0.00000  -0.00000   1.90988
   A52        1.86991   0.00000   0.00000  -0.00000  -0.00000   1.86991
   A53        1.85242   0.00000   0.00000  -0.00000  -0.00000   1.85242
   A54        1.98216   0.00000   0.00000   0.00000   0.00000   1.98216
   A55        1.94440   0.00000   0.00000   0.00000   0.00000   1.94441
   A56        1.89915  -0.00000   0.00000  -0.00000  -0.00000   1.89915
   A57        1.91644   0.00000   0.00000   0.00000   0.00000   1.91644
   A58        1.90223  -0.00000   0.00000  -0.00000  -0.00000   1.90223
   A59        1.97877  -0.00000   0.00000  -0.00000  -0.00000   1.97877
   A60        1.85537  -0.00000   0.00000  -0.00000  -0.00000   1.85537
   A61        1.89170  -0.00000   0.00000   0.00000   0.00000   1.89170
   A62        1.91532   0.00000   0.00000  -0.00000  -0.00000   1.91532
   A63        2.07059  -0.00000   0.00000  -0.00000  -0.00000   2.07059
   A64        2.02725   0.00000   0.00000   0.00000   0.00000   2.02725
   A65        2.18499  -0.00000   0.00000  -0.00000  -0.00000   2.18499
   A66        1.87919  -0.00000   0.00000  -0.00000  -0.00000   1.87919
   A67        1.89520   0.00000   0.00000   0.00000   0.00000   1.89520
   A68        1.94541  -0.00000   0.00000   0.00000   0.00000   1.94541
   A69        1.86158  -0.00000   0.00000  -0.00000  -0.00000   1.86158
   A70        1.89603   0.00000   0.00000  -0.00000  -0.00000   1.89603
   A71        1.98196   0.00000   0.00000   0.00000   0.00000   1.98196
   A72        1.92671   0.00000   0.00000  -0.00000  -0.00000   1.92671
   A73        1.74799  -0.00000   0.00000  -0.00000  -0.00000   1.74799
   A74        2.11706  -0.00000   0.00000  -0.00000  -0.00000   2.11706
   A75        2.16008   0.00000   0.00000   0.00000   0.00000   2.16009
   A76        2.01533  -0.00000   0.00000  -0.00000  -0.00000   2.01533
   A77        2.10766  -0.00000   0.00000   0.00000   0.00000   2.10766
   A78        1.88460  -0.00000   0.00000  -0.00000  -0.00000   1.88460
   A79        1.89781  -0.00000   0.00000  -0.00000  -0.00000   1.89781
   A80        1.82625   0.00000   0.00000  -0.00000  -0.00000   1.82625
   A81        1.92212  -0.00000   0.00000  -0.00000  -0.00000   1.92212
   A82        1.91549  -0.00000   0.00000  -0.00000  -0.00000   1.91549
   A83        1.91358   0.00000   0.00000   0.00000   0.00000   1.91358
   A84        1.98499  -0.00000   0.00000  -0.00000  -0.00000   1.98499
   A85        1.90707   0.00000   0.00000   0.00000   0.00000   1.90707
   A86        1.89214   0.00000   0.00000   0.00000   0.00000   1.89214
   A87        1.89134   0.00000   0.00000   0.00000   0.00000   1.89134
   A88        1.85099  -0.00000   0.00000  -0.00000  -0.00000   1.85099
   A89        1.93724  -0.00000   0.00000  -0.00000  -0.00000   1.93724
   A90        1.92295  -0.00000   0.00000  -0.00000  -0.00000   1.92295
   A91        1.96873   0.00000   0.00000   0.00000   0.00000   1.96873
   A92        1.89759  -0.00000   0.00000  -0.00000  -0.00000   1.89759
   A93        1.89599   0.00000   0.00000   0.00000   0.00000   1.89599
   A94        1.89443  -0.00000   0.00000  -0.00000  -0.00000   1.89443
   A95        1.88246   0.00000   0.00000   0.00000   0.00000   1.88246
   A96        2.16536   0.00000   0.00000   0.00000   0.00000   2.16536
   A97        2.01796   0.00000   0.00000   0.00000   0.00000   2.01796
   A98        2.09974  -0.00000   0.00000  -0.00000  -0.00000   2.09974
   A99        1.92575  -0.00000   0.00000  -0.00000  -0.00000   1.92575
   A100       1.28630  -0.00000   0.00000  -0.00000  -0.00000   1.28630
   A101       2.66166   0.00000   0.00000   0.00000   0.00000   2.66166
   A102       1.45207   0.00000   0.00000   0.00000   0.00000   1.45207
   A103       3.29763   0.00000   0.00000   0.00000   0.00000   3.29763
   A104       3.21444  -0.00000   0.00000  -0.00000  -0.00000   3.21444
   A105       2.94191   0.00000   0.00000   0.00000   0.00000   2.94191
   A106       2.98503  -0.00000   0.00000  -0.00001  -0.00001   2.98502
   A107       3.13191  -0.00000   0.00000  -0.00000  -0.00000   3.13191
   A108       3.01646   0.00000   0.00000   0.00002   0.00002   3.01647
    D1       -3.10691  -0.00000   0.00000  -0.00000  -0.00000  -3.10691
    D2        0.00931  -0.00000   0.00000  -0.00000  -0.00000   0.00931
    D3        0.02912  -0.00000   0.00000  -0.00000  -0.00000   0.02911
    D4       -3.13785  -0.00000   0.00000  -0.00000  -0.00000  -3.13785
    D5        3.13153   0.00000   0.00000   0.00000   0.00000   3.13154
    D6       -0.00399  -0.00000   0.00000   0.00000   0.00000  -0.00399
    D7       -0.04155   0.00000   0.00000   0.00000   0.00000  -0.04155
    D8        3.06693   0.00000   0.00000   0.00000   0.00000   3.06694
    D9        3.09408   0.00000   0.00000   0.00001   0.00001   3.09408
   D10       -0.08062   0.00000   0.00000   0.00001   0.00001  -0.08061
   D11        3.13718   0.00000   0.00000   0.00000   0.00000   3.13718
   D12       -0.00129   0.00000   0.00000   0.00000   0.00000  -0.00129
   D13       -0.00456   0.00000   0.00000   0.00000   0.00000  -0.00456
   D14        3.14016  -0.00000   0.00000  -0.00000  -0.00000   3.14016
   D15       -0.00756   0.00000   0.00000   0.00000   0.00000  -0.00755
   D16        3.14156   0.00000   0.00000   0.00000   0.00000   3.14156
   D17        3.13389   0.00000   0.00000   0.00000   0.00000   3.13389
   D18       -0.00018   0.00000   0.00000   0.00000   0.00000  -0.00018
   D19       -0.00660  -0.00000   0.00000  -0.00000  -0.00000  -0.00660
   D20       -3.12119  -0.00000   0.00000  -0.00000  -0.00000  -3.12119
   D21        3.13207   0.00000   0.00000   0.00000   0.00000   3.13207
   D22        0.01749   0.00000   0.00000  -0.00000  -0.00000   0.01749
   D23        0.09750  -0.00000   0.00000  -0.00001  -0.00001   0.09748
   D24       -0.49587  -0.00000   0.00000  -0.00001  -0.00001  -0.49587
   D25        0.03203  -0.00000   0.00000  -0.00000  -0.00000   0.03203
   D26       -3.11695  -0.00000   0.00000  -0.00000  -0.00000  -3.11696
   D27       -3.07705  -0.00000   0.00000  -0.00001  -0.00001  -3.07706
   D28        0.05715  -0.00000   0.00000  -0.00001  -0.00001   0.05714
   D29       -0.00519   0.00000   0.00000   0.00000   0.00000  -0.00519
   D30       -2.11406   0.00000   0.00000   0.00000   0.00000  -2.11405
   D31        2.11339   0.00000   0.00000   0.00000   0.00000   2.11339
   D32        3.10476   0.00000   0.00000   0.00001   0.00001   3.10477
   D33        0.99589   0.00000   0.00000   0.00001   0.00001   0.99590
   D34       -1.05984   0.00000   0.00000   0.00001   0.00001  -1.05984
   D35       -2.99608   0.00000   0.00000  -0.00000  -0.00000  -2.99608
   D36       -0.12450   0.00000   0.00000   0.00000   0.00000  -0.12450
   D37        0.15295   0.00000   0.00000  -0.00000  -0.00000   0.15295
   D38        3.02453   0.00000   0.00000   0.00000   0.00000   3.02453
   D39        0.21557   0.00000   0.00000   0.00001   0.00001   0.21557
   D40       -2.68047   0.00000   0.00000   0.00000   0.00000  -2.68047
   D41       -1.37665  -0.00000   0.00000   0.00000   0.00000  -1.37665
   D42        2.67664   0.00000   0.00000   0.00001   0.00001   2.67665
   D43        2.08128   0.00000   0.00000   0.00001   0.00001   2.08128
   D44       -0.14862   0.00000   0.00000   0.00001   0.00001  -0.14861
   D45       -1.34020  -0.00000   0.00000  -0.00001  -0.00001  -1.34021
   D46        1.95795   0.00000   0.00000   0.00001   0.00001   1.95796
   D47       -1.45563   0.00000   0.00000   0.00000   0.00000  -1.45562
   D48        2.57570   0.00000   0.00000   0.00001   0.00001   2.57571
   D49       -1.05291   0.00000   0.00000  -0.00000  -0.00000  -1.05291
   D50        1.02904  -0.00000   0.00000  -0.00000  -0.00000   1.02904
   D51        3.13999   0.00000   0.00000  -0.00000  -0.00000   3.13999
   D52       -2.91076   0.00000   0.00000  -0.00000  -0.00000  -2.91076
   D53       -0.82881  -0.00000   0.00000  -0.00000  -0.00000  -0.82881
   D54        1.28214   0.00000   0.00000  -0.00000  -0.00000   1.28214
   D55       -2.29310  -0.00000   0.00000  -0.00001  -0.00001  -2.29311
   D56       -0.18178  -0.00000   0.00000  -0.00001  -0.00001  -0.18178
   D57        1.87105  -0.00000   0.00000  -0.00001  -0.00001   1.87104
   D58       -0.50530  -0.00000   0.00000  -0.00001  -0.00001  -0.50530
   D59        1.60603  -0.00000   0.00000  -0.00001  -0.00001   1.60602
   D60       -2.62433  -0.00000   0.00000  -0.00001  -0.00001  -2.62434
   D61       -3.08439   0.00000   0.00000  -0.00000  -0.00000  -3.08439
   D62       -0.99283   0.00000   0.00000  -0.00000  -0.00000  -0.99283
   D63        1.11643   0.00000   0.00000  -0.00000  -0.00000   1.11643
   D64        1.42513  -0.00000   0.00000  -0.00000  -0.00000   1.42512
   D65       -2.76650  -0.00000   0.00000  -0.00000  -0.00000  -2.76651
   D66       -0.65724  -0.00000   0.00000  -0.00000  -0.00000  -0.65724
   D67        0.19759  -0.00000   0.00000   0.00001   0.00001   0.19759
   D68       -1.87141   0.00000   0.00000   0.00001   0.00001  -1.87140
   D69        2.27193  -0.00000   0.00000   0.00001   0.00001   2.27194
   D70        1.46366  -0.00000   0.00000  -0.00001  -0.00001   1.46365
   D71       -2.78633  -0.00000   0.00000  -0.00002  -0.00002  -2.78635
   D72       -0.05053   0.00000   0.00000   0.00000   0.00000  -0.05052
   D73        2.84794   0.00000   0.00000   0.00000   0.00000   2.84795
   D74        3.10703   0.00000   0.00000   0.00001   0.00001   3.10704
   D75       -0.27769   0.00000   0.00000   0.00001   0.00001  -0.27768
   D76        1.37321   0.00000   0.00000   0.00001   0.00001   1.37322
   D77       -2.01151   0.00000   0.00000   0.00001   0.00001  -2.01150
   D78       -1.51748   0.00000   0.00000   0.00001   0.00001  -1.51747
   D79        1.38099   0.00000   0.00000   0.00001   0.00001   1.38099
   D80        1.14507   0.00000   0.00000  -0.00000  -0.00000   1.14507
   D81       -1.93939  -0.00000   0.00000  -0.00000  -0.00000  -1.93939
   D82        2.70047   0.00000   0.00000  -0.00000  -0.00000   2.70046
   D83       -0.35411   0.00000   0.00000  -0.00000  -0.00000  -0.35411
   D84        3.09211   0.00000   0.00000   0.00001   0.00001   3.09212
   D85       -1.16526   0.00000   0.00000   0.00001   0.00001  -1.16525
   D86        0.97344   0.00000   0.00000   0.00001   0.00001   0.97345
   D87       -1.10271  -0.00000   0.00000   0.00001   0.00001  -1.10270
   D88        0.92311   0.00000   0.00000   0.00001   0.00001   0.92312
   D89        3.06180   0.00000   0.00000   0.00001   0.00001   3.06181
   D90        1.04917   0.00000   0.00000   0.00001   0.00001   1.04918
   D91        3.07499   0.00000   0.00000   0.00001   0.00001   3.07500
   D92       -1.06950   0.00000   0.00000   0.00001   0.00001  -1.06950
   D93       -1.39859   0.00000   0.00000   0.00006   0.00006  -1.39853
   D94        1.71577   0.00000   0.00000   0.00006   0.00006   1.71583
   D95        2.77363   0.00000   0.00000   0.00006   0.00006   2.77369
   D96       -0.39520   0.00000   0.00000   0.00006   0.00006  -0.39514
   D97        0.59718   0.00000   0.00000   0.00006   0.00006   0.59724
   D98       -2.57165   0.00000   0.00000   0.00006   0.00006  -2.57159
   D99       -1.02275   0.00000   0.00000   0.00003   0.00003  -1.02273
   D100      -3.03205   0.00000   0.00000   0.00003   0.00003  -3.03202
   D101       1.05508   0.00000   0.00000   0.00003   0.00003   1.05511
   D102       3.12795  -0.00000   0.00000   0.00002   0.00002   3.12797
   D103       1.11865   0.00000   0.00000   0.00003   0.00003   1.11867
   D104      -1.07741  -0.00000   0.00000   0.00002   0.00002  -1.07738
   D105       1.10867  -0.00000   0.00000   0.00002   0.00002   1.10870
   D106      -0.90063   0.00000   0.00000   0.00003   0.00003  -0.90060
   D107      -3.09668  -0.00000   0.00000   0.00002   0.00002  -3.09666
   D108      -3.02711   0.00000   0.00000   0.00000   0.00000  -3.02711
   D109       1.13473   0.00000   0.00000   0.00001   0.00001   1.13474
   D110       0.08523   0.00000   0.00000   0.00000   0.00000   0.08523
   D111      -2.03611   0.00000   0.00000   0.00001   0.00001  -2.03610
[...]
 938,-0.00014101,0.00011818,-0.00067770,0.00015278,0.00041996,0.0009504
 9,0.00010536,0.00069193,-0.26322235,0.09685183,0.15401679,-0.00024417,
 0.00020609,-0.00004391,0.00007821,-0.00004349,0.00005764,-0.00004690,0
 .00000857,-0.00004258,0.00015443,-0.00028397,-0.00000052,0.00000026,-0
 .00002772,0.00000932,-0.00000091,-0.00001503,0.00000958,0.00052271,-0.
 00023195,0.00015417,0.00048183,-0.00055005,0.00009977,-0.00030441,-0.0
 0003066,-0.00035442,0.00015003,0.00011369,0.00012874,-0.00007911,-0.00
 006731,-0.00002278,-0.00004986,-0.00001101,-0.00001603,-0.00004113,-0.
 00000540,0.00003729,-0.00067857,-0.00052192,-0.00019740,0.00056740,-0.
 00012687,0.00011661,-0.00018537,0.00002941,0.00015913,-0.00002622,0.00
 005318,-0.00006411,-0.00005747,-0.00000183,-0.00004045,-0.00058975,0.0
 0153709,0.00018930,-0.00018228,0.00004033,-0.00015924,0.00007020,-0.00
 008234,-0.00002506,0.00000458,-0.00018997,0.00006874,-0.00005292,-0.00
 020147,-0.00032576,0.00016737,0.00061635,-0.00178405,0.00013372,0.0000
 2002,0.00018538,0.00014147,-0.00006400,0.00036639,-0.00000113,0.000049
 30,0.00004346,0.00003988,0.00001725,-0.00000346,-0.00000914,-0.0000086
 9,0.00000889,-0.00046354,-0.00012299,-0.00032613,0.00002265,-0.0000027
 1,-0.00006174,-0.00005546,-0.00003715,0.00002757,-0.00004994,-0.000042
 20,0.00004510,0.00023162,-0.00004584,0.00012682,0.00055800,0.00015704,
 0.00025017,0.00003374,0.00001600,-0.00000728,-0.00003372,0.00001734,0.
 00001161,0.00005004,0.00000522,-0.00001781,0.00005476,0.00003456,-0.00
 000532,0.00000003,-0.00001388,-0.00001337,-0.00002829,0.00000714,0.000
 00954,0.00001146,0.00000242,0.00000191,-0.00001403,-0.00000455,0.00000
 960,0.00271531,-0.00118143,-0.00030031,0.00079370,0.00233042,0.0000260
 7,0.00372990,-0.00026733,0.00750563,-0.00018693,0.00032382,-0.00065632
 ,-0.00306805,-0.00091120,0.00089349,-0.15545536,-0.08372373,0.09840210
 ,-0.00007533,-0.00018631,0.00058080,0.00256659,0.00000773,-0.00167456,
 0.00185861,0.00016670,-0.00028427,-0.07508696,-0.01013323,0.05819942,0
 .53181484,-0.00132636,0.00077193,-0.00178054,0.00012169,-0.00001791,0.
 00014969,-0.00019780,0.00005488,-0.00027747,0.00052814,-0.00073487,0.0
 0038049,0.00000317,-0.00001649,0.00000925,0.00001751,-0.00002556,0.000
 01918,0.00118776,-0.00116642,0.00146316,0.00057947,0.00006810,0.001039
 79,-0.00055326,0.00001975,-0.00082890,0.00018074,0.00037586,0.00047411
 ,-0.00002565,-0.00037401,-0.00012896,-0.00006640,-0.00002284,-0.000093
 46,-0.00002908,0.00008821,0.00001926,-0.00029284,-0.00008659,-0.000211
 48,0.00016200,0.00008647,-0.00001766,-0.00008957,-0.00001939,0.0000442
 5,0.00000849,0.00000629,-0.00001885,-0.00005783,-0.00000920,0.00005878
 ,0.00013524,-0.00032700,-0.00002631,-0.00030129,0.00022447,-0.00065599
 ,0.00003900,0.00003986,0.00009522,-0.00005758,-0.00004513,-0.00003488,
 -0.00018912,0.00013815,-0.00009023,0.00020312,-0.00027415,-0.00039794,
 0.00001674,0.00004646,0.00020601,0.00014802,0.00000613,-0.00004331,0.0
 0004818,0.00007384,0.00003903,0.00002388,0.00001668,-0.00000607,-0.000
 00660,-0.00001849,-0.00000250,-0.00053722,-0.00028064,-0.00041627,0.00
 001261,0.00000119,-0.00004545,-0.00003495,-0.00005354,0.00001970,-0.00
 005076,-0.00003974,0.00002293,0.00023117,0.00008706,0.00018939,0.00051
 325,0.00041772,0.00044953,0.00002850,0.00000637,-0.00000876,0.00008010
 ,-0.00003692,0.00009696,-0.00002753,0.00005874,-0.00003457,0.00001855,
 0.00007846,-0.00001782,0.00000803,-0.00002977,-0.00001011,-0.00001678,
 0.00000742,0.00001430,0.00000368,0.00000753,0.00000826,-0.00002054,-0.
 00001417,-0.00001884,0.00425483,-0.00989978,0.00344015,0.00063433,0.00
 032985,-0.00036873,-0.02411752,-0.01239524,0.02674306,-0.00079711,0.00
 047254,0.00033158,-0.00236863,-0.00202244,0.00026157,-0.02820402,-0.19
 637248,0.07669349,0.00027600,0.00003771,0.00082598,0.00078784,-0.00086
 003,0.00011664,0.00116622,0.00031273,0.00040268,0.00097802,0.03672367,
 -0.01022882,-0.14663641,0.39113134,0.00066611,-0.00066190,0.00072796,-
 0.00010440,0.00009805,-0.00007753,0.00007885,-0.00004081,0.00009530,-0
 .00030230,0.00055441,-0.00010587,-0.00000616,0.00002657,-0.00000829,-0
 .00001024,0.00002218,-0.00001463,-0.00066230,0.00075684,-0.00070299,-0
 .00051629,0.00046546,-0.00047059,0.00043988,-0.00009344,0.00059211,-0.
 00014784,-0.00011796,-0.00027280,0.00005534,0.00008855,0.00007554,0.00
 004775,-0.00000523,0.00005612,0.00001816,-0.00005046,-0.00005411,0.000
 28385,0.00032864,0.00019498,-0.00026050,0.00009504,0.00005621,0.000131
 66,-0.00001134,-0.00009116,0.00002702,-0.00002014,-0.00002485,0.000053
 04,-0.00000163,-0.00001692,0.00041640,-0.00100458,-0.00014432,0.000126
 65,-0.00010620,0.00033079,-0.00005199,0.00005770,-0.00002509,0.0000286
 0,0.00010372,0.00004680,0.00003146,0.00004620,0.00018460,-0.00021220,-
 0.00022076,0.00107065,-0.00007979,-0.00003774,-0.00013558,-0.00010213,
 0.00004061,-0.00014221,-0.00002274,-0.00005937,-0.00003806,-0.00001374
 ,-0.00001064,0.00001283,0.00001954,0.00001610,0.00004066,0.00058070,0.
 00008914,0.00046074,-0.00001106,0.00000096,0.00003325,0.00002140,0.000
 03650,-0.00002987,0.00005163,0.00003748,0.00001101,-0.00027945,0.00009
 310,-0.00021238,-0.00056301,-0.00018428,-0.00044761,-0.00001274,-0.000
 00193,0.00000654,-0.00002874,0.00009450,0.00012798,0.00001483,-0.00010
 272,-0.00009523,-0.00007492,-0.00005205,-0.00005615,0.00000722,0.00001
 357,0.00002166,0.00003872,-0.00001132,-0.00000163,-0.00000972,0.000001
 57,-0.00001553,-0.00000820,0.00000895,-0.00003830,-0.00144256,0.005464
 29,0.00067573,-0.00041909,-0.00170116,-0.00015167,0.01503369,0.0103475
 7,0.00033799,-0.00131815,0.00485472,0.00104705,0.00262750,-0.00047047,
 0.00033847,0.07531484,0.11070017,-0.14276198,-0.00003143,-0.00054318,0
 .00012567,-0.00067158,0.00029690,-0.00029357,-0.00012630,-0.00003565,0
 .00004569,0.05329783,-0.00302892,-0.01840809,-0.24581377,-0.06226315,0
 .20208578,-0.00422544,0.00091318,-0.00550375,0.00018160,-0.00002240,0.
 00025473,-0.00024613,-0.00002885,-0.00060093,0.00156412,-0.00166565,0.
 00121706,-0.00000419,0.00000731,0.00001537,0.00007869,-0.00004983,0.00
 006965,-0.00001993,0.00060280,0.00326742,0.00083572,0.00112029,0.00247
 791,-0.00072664,0.00016328,-0.00110570,0.00019186,0.00052781,0.0007211
 0,0.00007490,-0.00054680,-0.00012214,-0.00005295,-0.00000974,-0.000116
 13,0.00001770,0.00022542,0.00008622,-0.00010778,0.00069639,0.00026362,
 -0.00006331,0.00013096,-0.00004303,0.00003230,-0.00004025,-0.00003024,
 0.00001674,-0.00003283,0.00001609,-0.00001709,-0.00000809,0.00004541,0
 .00058813,-0.00201911,-0.00030671,0.00035434,-0.00055037,-0.00133081,0
 .00005999,0.00018731,0.00014812,-0.00008355,0.00007974,0.00001054,0.00
 026265,0.00013271,0.00005636,-0.00017882,-0.00000482,0.00000230,-0.000
 10073,-0.00006094,-0.00006342,-0.00008794,-0.00002007,0.00004987,0.000
 03231,0.00003661,0.00000927,0.00000096,0.00001067,-0.00000178,0.000014
 80,-0.00000303,-0.00000404,-0.00015728,-0.00020972,-0.00013882,-0.0000
 0382,0.00000071,-0.00000174,0.00000050,-0.00001583,0.00000406,-0.00001
 891,-0.00000247,-0.00001040,0.00005909,0.00015949,0.00009512,0.0000729
 2,0.00038467,0.00018988,0.00000264,-0.00000321,-0.00000128,0.00005778,
 -0.00003793,0.00001083,-0.00003810,0.00004093,0.00001452,0.00000164,0.
 00003218,0.00000546,0.00000267,-0.00001093,-0.00000423,-0.00000472,0.0
 0000340,0.00000141,-0.00000083,0.00000624,0.00000471,-0.00000360,-0.00
 000442,-0.00000419,-0.07654269,0.05083528,-0.00226849,-0.00213588,0.03
 802934,-0.00136158,0.00582881,-0.03020415,0.00177014,0.00027346,0.0003
 4784,0.00067822,0.00145148,-0.00140356,0.00049238,-0.00649832,0.000665
 30,0.00345807,-0.00005786,0.00015870,0.00001070,0.00002220,0.00064976,
 -0.00017368,-0.00152422,0.00038560,-0.00035078,0.00150777,0.00064023,-
 0.00089749,0.00008831,-0.00288329,0.00141128,0.07865597,0.00484632,-0.
 00087596,0.00786878,-0.00021574,-0.00007409,-0.00035922,0.00061279,-0.
 00005104,0.00082191,-0.00162529,0.00200376,-0.00165485,0.00000791,-0.0
 0004894,-0.00001284,-0.00006975,0.00005203,-0.00007423,-0.00097733,-0.
 00601669,-0.00293311,-0.00135575,-0.00190422,-0.00337482,0.00086785,-0
 .00015605,0.00121316,-0.00021928,-0.00078797,-0.00087741,-0.00016935,0
 .00080324,0.00007324,0.00007486,0.00002465,0.00012207,0.00009515,-0.00
 024994,-0.00004606,0.00017928,-0.00095456,-0.00023896,0.00006558,-0.00
 000227,-0.00001467,-0.00006550,0.00002788,0.00003023,-0.00001697,0.000
 02149,0.00000769,-0.00001515,0.00000053,0.00001554,-0.00115389,0.00248
 739,0.00034118,-0.00082206,0.00041167,-0.00217575,0.00019214,-0.000079
 15,0.00019365,0.00008755,-0.00014778,0.00005164,-0.00013099,-0.0000816
 0,-0.00007583,0.00010338,-0.00036859,-0.00020025,0.00008183,0.00007611
 ,0.00008743,0.00014446,0.00002590,-0.00012610,-0.00001366,-0.00002569,
 0.00000100,-0.00000280,-0.00001109,-0.00000181,-0.00002198,-0.00000356
 ,-0.00001780,-0.00013150,0.00028466,-0.00009271,0.00000258,-0.00000045
 ,-0.00000338,-0.00000156,0.00000153,0.00000618,0.00000808,-0.00000827,
 -0.00000533,0.00006594,-0.00030359,0.00000865,0.00022101,-0.00042134,0
 .00012592,-0.00000320,0.00000163,0.00000122,-0.00003610,-0.00000416,-0
 .00005965,0.00002026,-0.00000126,0.00002723,0.00001997,-0.00001501,0.0
 0002183,-0.00000721,0.00000872,-0.00000418,-0.00000523,0.00000051,-0.0
 0000284,0.00000477,-0.00000438,0.00000377,0.00000917,0.00000141,0.0000
 1818,0.05842190,-0.41945518,0.05819284,-0.00247262,0.00012611,-0.00429
 342,0.00085317,-0.01162740,-0.00251490,0.00109269,0.00164702,-0.000888
 63,-0.00010982,0.00023968,-0.00051112,-0.00091779,-0.00039089,0.000997
 86,-0.00001049,-0.00007196,0.00012293,0.00029886,0.00028763,0.00008960
 ,-0.00043820,0.00024450,-0.00011305,-0.00022625,0.00089499,0.00003925,
 0.00037855,0.00058356,-0.00035724,-0.05738319,0.43403820,-0.00391279,0
 .00182262,-0.00569596,0.00019928,-0.00010027,0.00022771,-0.00029873,-0
 .00010768,-0.00035929,0.00121364,-0.00179573,0.00117885,0.00001409,-0.
 00001485,0.00000527,0.00006604,-0.00005604,0.00007515,0.00293375,-0.00
 053836,0.00129158,0.00101080,0.00105052,0.00200187,-0.00087085,0.00014
 189,-0.00118377,0.00027788,0.00050889,0.00070170,-0.00002193,-0.000538
 46,-0.00017333,-0.00007905,-0.00002342,-0.00011975,-0.00000755,0.00018
 739,0.00018905,0.00004854,0.00093352,0.00050410,-0.00020166,0.00022653
 ,-0.00004594,0.00003444,-0.00005548,-0.00008632,0.00006239,-0.00005707
 ,-0.00003267,-0.00001758,0.00000657,0.00007628,0.00087844,-0.00220464,
 -0.00067497,-0.00187697,-0.00176805,-0.00359675,0.00016039,0.00025640,
 0.00024091,-0.00001892,0.00011771,0.00040727,0.00022180,-0.00075446,0.
 00024506,-0.00033473,0.00066847,0.00031105,-0.00004004,0.00006657,-0.0
 0045524,0.00012679,-0.00004045,-0.00014539,0.00005039,0.00005381,0.000
 02635,0.00001007,0.00002079,-0.00000267,0.00001698,-0.00000666,-0.0000
 0182,-0.00040863,-0.00022656,-0.00030336,0.00000021,-0.00000098,-0.000
 01424,-0.00000813,-0.00002681,0.00001095,-0.00003094,-0.00001013,-0.00
 001023,0.00017544,0.00012271,0.00015920,0.00035497,0.00050618,0.000427
 97,0.00000792,-0.00000059,-0.00000322,0.00007500,-0.00005076,0.0000176
 0,-0.00004582,0.00005815,0.00001643,0.00001105,0.00004926,0.00000793,0
 .00000333,-0.00001755,-0.00000757,-0.00001115,0.00000594,0.00000290,0.
 00000135,0.00001143,0.00000799,-0.00000582,-0.00000749,-0.00000456,0.0
 0276912,0.00820446,-0.02021762,-0.00277232,0.01348392,-0.00466208,0.00
 129162,0.02942649,-0.00990636,-0.00174684,0.00015090,0.00154969,-0.000
 47325,-0.00095776,0.00025599,0.00439182,0.00068741,-0.00335380,-0.0000
 8265,-0.00025387,-0.00003150,-0.00013960,0.00016101,-0.00026995,-0.000
 23316,-0.00002907,0.00061007,-0.00026814,-0.00111511,0.00104499,-0.000
 15039,0.00106037,0.00011648,-0.00223532,-0.04955365,0.03945054,0.00026
 291,-0.00009945,0.00030406,-0.00003118,-0.00000436,-0.00003195,0.00004
 376,-0.00000494,0.00005513,-0.00010884,0.00013186,-0.00006417,0.000001
 92,0.00000560,-0.00000418,-0.00000039,0.00000643,-0.00000496,-0.000303
 84,0.00016280,-0.00025605,-0.00015917,0.00000782,-0.00017370,0.0001148
 8,0.00001983,0.00014296,-0.00005436,-0.00007973,-0.00007369,0.00001704
 ,0.00006791,0.00001265,0.00001936,0.00000787,0.00000826,0.00002187,-0.
 00000623,-0.00000332,0.00005826,0.00004744,0.00005138,-0.00004087,-0.0
 0000014,-0.00000030,0.00002672,0.00000055,-0.00001199,-0.00000005,-0.0
 0000400,0.00000328,0.00000991,0.00000155,-0.00000291,0.00002624,-0.000
 07053,-0.00000661,0.00010467,-0.00003472,0.00013689,-0.00001877,0.0000
 0307,-0.00001105,0.00000897,0.00002189,-0.00002923,0.00005893,-0.00004
 445,0.00002773,-0.00005113,0.00005521,0.00001931,-0.00001976,-0.000014
 46,-0.00003022,-0.00003832,-0.00000292,0.00002485,0.00000317,-0.000011
 57,-0.00001321,-0.00001173,-0.00000716,0.00000025,-0.00000150,-0.00000
 021,-0.00000365,0.00010317,0.00004330,0.00006498,-0.00000652,0.0000010
 6,0.00001347,0.00001319,0.00000706,-0.00000509,0.00001299,0.00000864,-
 0.00001677,-0.00005400,-0.00000859,-0.00002188,-0.00012157,-0.00007026
 ,-0.00005729,-0.00000852,-0.00000479,0.00000216,0.00001526,-0.00001337
 ,-0.00000374,-0.00001637,0.00000744,0.00000835,-0.00001279,-0.00000513
 ,0.00000599,-0.00000107,0.00000278,0.00000199,0.00000656,-0.00000155,-
 0.00000287,-0.00000311,-0.00000162,0.00000084,0.00000349,0.00000056,-0
 .00000136,-0.00071712,0.00135530,-0.00141227,-0.00026723,-0.00003505,0
 .00013857,0.00181342,-0.00074253,0.00016275,0.00004186,-0.00108357,-0.
 00045277,0.00241348,0.00070483,-0.00130968,-0.02879562,0.02083012,0.00
 498044,-0.00034890,-0.00013067,-0.00008301,-0.00114111,0.00118661,-0.0
 0033587,-0.00064039,-0.00000355,0.00011173,0.00088664,-0.00400279,0.00
 545934,-0.30997474,0.19649187,0.10247937,0.00056867,-0.00013738,-0.000
 11458,0.33629162,0.00040176,-0.00023790,0.00060632,-0.00002924,-0.0000
 1550,-0.00005114,0.00007484,-0.00002594,0.00011214,-0.00015189,0.00019
 908,-0.00014035,-0.00000081,0.00000128,-0.00000188,-0.00000550,0.00000
 525,-0.00000271,-0.00020161,0.00033538,-0.00048914,-0.00011663,-0.0001
 1226,-0.00036448,0.00015301,0.00000894,0.00026621,-0.00004226,-0.00014
 609,-0.00016842,-0.00000528,0.00015279,0.00004858,0.00001911,0.0000101
 7,0.00003538,-0.00000350,-0.00003407,0.00001241,-0.00000322,-0.0000478
 6,0.00003750,0.00002725,-0.00005244,0.00002312,0.00000721,0.00001313,0
 .00000781,-0.00000763,0.00000478,-0.00000407,0.00001415,0.00000343,-0.
 00002719,-0.00014624,0.00037278,0.00003240,0.00003160,-0.00008197,0.00
 016191,0.00000550,-0.00002716,-0.00003559,0.00003335,-0.00000847,0.000
 04831,0.00003454,-0.00008405,-0.00002326,-0.00000400,0.00017796,-0.000
 11424,0.00001450,-0.00001168,-0.00002623,-0.00002943,-0.00001111,0.000
 06831,-0.00001678,-0.00002266,-0.00001062,-0.00000657,-0.00000470,0.00
 000133,-0.00000129,0.00000548,-0.00000117,0.00013582,0.00010896,0.0001
 0853,-0.00000307,-0.00000131,0.00001132,0.00000894,0.00001589,-0.00000
 353,0.00001656,0.00001045,-0.00001166,-0.00005204,-0.00005493,-0.00005
 099,-0.00011436,-0.00015275,-0.00013194,-0.00000956,-0.00000133,0.0000
 0283,-0.00002676,0.00000604,-0.00004157,0.00000943,-0.00001332,0.00001
 798,-0.00000096,-0.00002466,0.00001203,-0.00000412,0.00000990,0.000001
 71,0.00000337,-0.00000181,-0.00000541,-0.00000012,-0.00000307,-0.00000
 171,0.00000832,0.00000405,0.00000974,0.00109348,-0.00009121,-0.0014750
 7,0.00006151,0.00034904,-0.00004074,-0.00272494,-0.00168863,0.00368717
 ,-0.00039955,-0.00108051,-0.00097198,-0.00108223,-0.00101262,0.0012982
 0,-0.01903202,0.01528726,0.00213431,0.00015484,0.00029588,-0.00068791,
 0.00187625,-0.00038739,0.00091547,0.00020867,-0.00011846,-0.00036598,-
 0.00530050,-0.00008038,0.00647820,0.23963440,-0.20713019,-0.06354521,0
 .00004736,-0.00015171,0.00032205,-0.21455369,0.19554025,-0.00032007,0.
 00043901,-0.00043542,0.00003933,-0.00005685,0.00002250,-0.00002667,0.0
 0002868,-0.00003915,0.00013625,-0.00025666,0.00005042,0.00000437,-0.00
 000773,0.00000186,0.00000673,-0.00000916,0.00000602,0.00007985,-0.0004
 5733,0.00037463,0.00011059,-0.00011483,0.00028558,-0.00018555,0.000097
 00,-0.00028410,0.00003450,0.00003037,0.00014556,-0.00000178,-0.0000364
 2,-0.00005189,-0.00001197,0.00000936,-0.00003614,0.00000990,0.00003889
 ,0.00002703,0.00007722,-0.00000425,-0.00005603,-0.00005359,-0.00000078
 ,-0.00008304,-0.00001369,-0.00000572,-0.00000268,-0.00000617,-0.000007
 93,0.00004188,-0.00001531,0.00000106,0.00003276,-0.00001137,0.00001194
 ,0.00002136,0.00005525,0.00005730,-0.00012192,-0.00001010,-0.00000169,
 0.00002957,-0.00003303,0.00000815,-0.00011334,-0.00000945,0.00000324,0
 .00002858,0.00011464,-0.00002880,0.00000142,-0.00001472,0.00001142,0.0
 0002597,0.00000043,-0.00001134,-0.00000715,0.00002023,0.00002273,0.000
 00751,-0.00000809,-0.00000051,-0.00000811,-0.00000967,-0.00000849,-0.0
 0003114,-0.00022869,-0.00002159,-0.00020355,-0.00000200,0.00000109,0.0
 0000205,0.00000891,-0.00001302,0.00000917,-0.00001610,-0.00001018,-0.0
 0002624,0.00010297,-0.00004295,0.00010383,0.00016430,0.00007414,0.0002
 3304,-0.00000412,-0.00000568,-0.00000176,0.00003950,-0.00006990,-0.000
 07692,-0.00003249,0.00006728,0.00006547,0.00002751,0.00002561,0.000038
 53,-0.00000440,-0.00000497,-0.00000947,-0.00001497,0.00000517,-0.00000
 203,0.00000102,-0.00000149,0.00001082,0.00000948,-0.00000483,0.0000191
 2,-0.00051409,-0.00086666,-0.00035959,-0.00015611,-0.00028768,0.000103
 52,0.00100531,0.00224100,0.00104774,-0.00004405,-0.00047316,-0.0005173
 8,0.00113375,-0.00057850,-0.00138251,0.02025141,-0.02280340,-0.0103285
 7,0.00000015,0.00009624,-0.00027934,-0.00230625,0.00149392,0.00019771,
 -0.00061321,-0.00021502,0.00061222,0.00642680,0.00585788,0.00114738,0.
 08466682,-0.03664773,-0.04408158,-0.00018114,0.00010089,0.00019741,-0.
 10967838,0.05233290,0.05364841\\0.00000085,-0.00000044,0.00000101,-0.0
 0000008,0.00000002,0.00000158,0.00000030,0.00000006,0.00000163,0.00000
 059,-0.00000028,0.00000112,-0.00000040,0.00000032,0.00000182,0.0000003
 7,-0.00000013,0.00000191,0.00000093,-0.00000048,0.00000015,0.00000030,
 -0.00000014,0.00000072,-0.00000029,0.00000010,0.00000082,-0.00000055,0
 .00000023,0.00000105,-0.00000051,0.00000028,0.00000065,-0.00000072,0.0
 0000051,0.00000134,0.00000096,-0.00000052,0.00000117,0.00000005,-0.000
 00002,-0.00000082,-0.00000061,0.00000018,-0.00000081,-0.00000085,0.000
 00052,-0.00000054,-0.00000068,0.00000039,-0.00000103,-0.00000085,0.000
 00044,-0.00000124,0.00000011,0.00000019,-0.00000003,0.00000044,-0.0000
 0031,-0.00000021,-0.00000020,0.00000008,-0.00000011,0.00000005,-0.0000
 0009,0.00000032,0.00000018,-0.00000038,-0.00000137,0.00000070,-0.00000
 042,-0.00000135,0.00000006,-0.00000009,-0.00000172,0.00000023,-0.00000
 012,-0.00000135,-0.00000121,0.00000073,0.00000052,-0.00000086,0.000000
 61,0.00000084,-0.00000100,0.00000061,-0.00000015,-0.00000123,0.0000006
 1,0.00000065,-0.00000136,0.00000065,-0.00000028,-0.00000064,0.00000039
 ,-0.00000018,-0.00000110,0.00000061,-0.00000033,-0.00000085,0.00000062
 ,0.00000130,-0.00000073,0.00000058,0.00000040,-0.00000097,0.00000054,0
 .00000009,-0.00000091,0.00000046,-0.00000089,-0.00000143,0.00000079,-0
 .00000111,-0.00000168,0.00000085,-0.00000011,-0.00000198,0.00000110,-0
 .00000029,-0.00000173,0.00000108,-0.00000025,-0.00000148,0.00000082,0.
 00000066,-0.00000074,0.00000032,-0.00000102,0.00000104,-0.00000056,-0.
 00000067,0.00000148,-0.00000085,-0.00000096,0.00000160,-0.00000096,-0.
 00000057,0.00000194,-0.00000113,-0.00000021,0.00000122,-0.00000077,0.0
 0000018,0.00000195,-0.00000077,-0.00000031,0.00000100,-0.00000053,0.00
 000005,0.00000159,-0.00000087,0.00000038,0.00000121,-0.00000065,0.0000
 0043,0.00000140,-0.00000097,-0.00000149,0.00000184,-0.00000120,-0.0000
 0078,0.00000123,-0.00000085,-0.00000031,0.00000201,-0.00000116,-0.0000
 0028\\\@


 QUHEN THE CAUSS IS TAKEN AWAY THE EFFECT WANISHETH.
 -- PROVERBS AND REASONS OF THE YEAR 1585
           AS REPRINTED IN PAISLEY MAGAZINE 1828.
 Job cpu time:       0 days  8 hours 51 minutes 25.9 seconds.
 File lengths (MBytes):  RWF=   1466 Int=      0 D2E=      0 Chk=     19 Scr=      1
 Normal termination of Gaussian 09 at Thu Mar 25 03:59:02 2021.
