 Entering Gaussian System, Link 0=g09
 Initial command:
 /opt/software/gaussian/g09.e01/l1.exe "/localscratch/enas93.52313747.0/Gau-30439.inp" -scrdir="/localscratch/enas93.52313747.0/"
 Entering Link 1 = /opt/software/gaussian/g09.e01/l1.exe PID=     30440.
  
 Copyright (c) 1988,1990,1992,1993,1995,1998,2003,2009,2015,
            Gaussian, Inc.  All Rights Reserved.
  
 This is part of the Gaussian(R) 09 program.  It is based on
 the Gaussian(R) 03 system (copyright 2003, Gaussian, Inc.),
 the Gaussian(R) 98 system (copyright 1998, Gaussian, Inc.),
 the Gaussian(R) 94 system (copyright 1995, Gaussian, Inc.),
 the Gaussian 92(TM) system (copyright 1992, Gaussian, Inc.),
 the Gaussian 90(TM) system (copyright 1990, Gaussian, Inc.),
 the Gaussian 88(TM) system (copyright 1988, Gaussian, Inc.),
 the Gaussian 86(TM) system (copyright 1986, Carnegie Mellon
 University), and the Gaussian 82(TM) system (copyright 1983,
 Carnegie Mellon University). Gaussian is a federally registered
 trademark of Gaussian, Inc.
  
 This software contains proprietary and confidential information,
 including trade secrets, belonging to Gaussian, Inc.
  
 This software is provided under written license and may be
 used, copied, transmitted, or stored only in accord with that
 written license.
  
 The following legend is applicable only to US Government
 contracts under FAR:
  
                    RESTRICTED RIGHTS LEGEND
  
 Use, reproduction and disclosure by the US Government is
 subject to restrictions as set forth in subparagraphs (a)
 and (c) of the Commercial Computer Software - Restricted
 Rights clause in FAR 52.227-19.
  
 Gaussian, Inc.
 340 Quinnipiac St., Bldg. 40, Wallingford CT 06492
  
  
 ---------------------------------------------------------------
 Warning -- This program may not be used in any manner that
 competes with the business of Gaussian, Inc. or will provide
 assistance to any competitor of Gaussian, Inc.  The licensee
 of this program is prohibited from giving any competitor of
 Gaussian, Inc. access to this program.  By using this program,
 the user acknowledges that Gaussian, Inc. is engaged in the
 business of creating and licensing software in the field of
 computational chemistry and represents and warrants to the
 licensee that it is not a competitor of Gaussian, Inc. and that
 it will not use this program in any manner prohibited above.
 ---------------------------------------------------------------
  

 Cite this work as:
 Gaussian 09, Revision E.01,
 M. J. Frisch, G. W. Trucks, H. B. Schlegel, G. E. Scuseria, 
 M. A. Robb, J. R. Cheeseman, G. Scalmani, V. Barone, B. Mennucci, 
 G. A. Petersson, H. Nakatsuji, M. Caricato, X. Li, H. P. Hratchian, 
 A. F. Izmaylov, J. Bloino, G. Zheng, J. L. Sonnenberg, M. Hada, 
 M. Ehara, K. Toyota, R. Fukuda, J. Hasegawa, M. Ishida, T. Nakajima, 
 Y. Honda, O. Kitao, H. Nakai, T. Vreven, J. A. Montgomery, Jr., 
 J. E. Peralta, F. Ogliaro, M. Bearpark, J. J. Heyd, E. Brothers, 
 K. N. Kudin, V. N. Staroverov, T. Keith, R. Kobayashi, J. Normand, 
 K. Raghavachari, A. Rendell, J. C. Burant, S. S. Iyengar, J. Tomasi, 
 M. Cossi, N. Rega, J. M. Millam, M. Klene, J. E. Knox, J. B. Cross, 
 V. Bakken, C. Adamo, J. Jaramillo, R. Gomperts, R. E. Stratmann, 
 O. Yazyev, A. J. Austin, R. Cammi, C. Pomelli, J. W. Ochterski, 
 R. L. Martin, K. Morokuma, V. G. Zakrzewski, G. A. Voth, 
 P. Salvador, J. J. Dannenberg, S. Dapprich, A. D. Daniels, 
 O. Farkas, J. B. Foresman, J. V. Ortiz, J. Cioslowski, 
 and D. J. Fox, Gaussian, Inc., Wallingford CT, 2013.
 
 ******************************************
 Gaussian 09:  EM64L-G09RevE.01 30-Nov-2015
                 7-Oct-2020 
 ******************************************
 %nprocshared=4
 Will use up to    4 processors via shared memory.
 %mem=10GB
 --------------------------------
 # opt freq b3lyp/6-31g(d) nosymm
 --------------------------------
 1/14=-1,18=20,19=15,26=3,38=1/1,3;
 2/9=110,12=2,15=1,17=6,18=5,40=1/2;
 3/5=1,6=6,7=1,11=2,16=1,25=1,30=1,71=1,74=-5/1,2,3;
 4//1;
 5/5=2,38=5/2;
 6/7=2,8=2,9=2,10=2,28=1/1;
 7/30=1/1,2,3,16;
 1/14=-1,18=20,19=15,26=3/3(2);
 2/9=110,15=1/2;
 99//99;
 2/9=110,15=1/2;
 3/5=1,6=6,7=1,11=2,16=1,25=1,30=1,71=1,74=-5/1,2,3;
 4/5=5,16=3,69=1/1;
 5/5=2,38=5/2;
 7/30=1/1,2,3,16;
 1/14=-1,18=20,19=15,26=3/3(-5);
 2/9=110,15=1/2;
 6/7=2,8=2,9=2,10=2,19=2,28=1/1;
 99/9=1/99;
 -------------------
 Title Card Required
 -------------------
 Symbolic Z-matrix:
 Charge =  1 Multiplicity = 1
 C                    -0.86379   1.64857   0.8362 
 C                    -3.20511   1.68574  -0.77287 
 C                    -3.00123   2.61924   0.19569 
 N                    -1.88113   2.59445   0.95853 
 H                    -4.09539   1.69728  -1.38726 
 H                    -3.70939   3.41401   0.402 
 O                     0.12079   1.65334   1.53098 
 N                    -1.09639   0.68082  -0.1819 
 C                    -2.21069   0.68381  -0.96228 
 N                    -2.35592  -0.25627  -1.89765 
 H                    -1.66873  -0.9792   -2.0614 
 H                    -3.18031  -0.26406  -2.48361 
 H                    -1.72169   3.28774   1.68273 
 S                     2.77369  -2.46374  -0.26084 
 C                     4.30371  -1.46271  -0.28824 
 H                     4.33238  -0.93726  -1.24632 
 H                     4.31535  -0.72934   0.52382 
 H                     5.18489  -2.1066   -0.21622 
 C                    -0.04959  -0.34993  -0.35429 
 H                     0.73431  -0.16048   0.37265 
 H                     0.37827  -0.28792  -1.35839 
 H                    -0.46729  -1.34339  -0.17104 
 C                     2.94384  -3.25665   1.37794 
 H                     2.0793   -3.9114    1.51475 
 H                     3.85227  -3.86442   1.41772 
 H                     2.9618   -2.51332   2.18074 
 
 Add virtual bond connecting atoms H20        and S14        Dist= 5.94D+00.

 GradGradGradGradGradGradGradGradGradGradGradGradGradGradGradGradGradGrad
 Berny optimization.
 Initialization pass.
                           ----------------------------
                           !    Initial Parameters    !
                           ! (Angstroms and Degrees)  !
 --------------------------                            --------------------------
 ! Name  Definition              Value          Derivative Info.                !
 --------------------------------------------------------------------------------
 ! R1    R(1,4)                  1.3945         estimate D2E/DX2                !
 ! R2    R(1,7)                  1.205          estimate D2E/DX2                !
 ! R3    R(1,8)                  1.4238         estimate D2E/DX2                !
 ! R4    R(2,3)                  1.3606         estimate D2E/DX2                !
 ! R5    R(2,5)                  1.0818         estimate D2E/DX2                !
 ! R6    R(2,9)                  1.4243         estimate D2E/DX2                !
 ! R7    R(3,4)                  1.3554         estimate D2E/DX2                !
 ! R8    R(3,6)                  1.0843         estimate D2E/DX2                !
 ! R9    R(4,13)                 1.0152         estimate D2E/DX2                !
 ! R10   R(8,9)                  1.3604         estimate D2E/DX2                !
 ! R11   R(8,19)                 1.4792         estimate D2E/DX2                !
 ! R12   R(9,10)                 1.3341         estimate D2E/DX2                !
 ! R13   R(10,11)                1.0108         estimate D2E/DX2                !
 ! R14   R(10,12)                1.0114         estimate D2E/DX2                !
 ! R15   R(14,15)                1.8286         estimate D2E/DX2                !
 ! R16   R(14,20)                3.1409         estimate D2E/DX2                !
 ! R17   R(14,23)                1.8285         estimate D2E/DX2                !
 ! R18   R(15,16)                1.0931         estimate D2E/DX2                !
 ! R19   R(15,17)                1.0943         estimate D2E/DX2                !
 ! R20   R(15,18)                1.0937         estimate D2E/DX2                !
 ! R21   R(19,20)                1.0857         estimate D2E/DX2                !
 ! R22   R(19,21)                1.0932         estimate D2E/DX2                !
 ! R23   R(19,22)                1.0932         estimate D2E/DX2                !
 ! R24   R(23,24)                1.0931         estimate D2E/DX2                !
 ! R25   R(23,25)                1.0937         estimate D2E/DX2                !
 ! R26   R(23,26)                1.0942         estimate D2E/DX2                !
 ! A1    A(4,1,7)              122.8748         estimate D2E/DX2                !
 ! A2    A(4,1,8)              113.865          estimate D2E/DX2                !
 ! A3    A(7,1,8)              123.2602         estimate D2E/DX2                !
 ! A4    A(3,2,5)              121.3543         estimate D2E/DX2                !
 ! A5    A(3,2,9)              118.2095         estimate D2E/DX2                !
 ! A6    A(5,2,9)              120.4362         estimate D2E/DX2                !
 ! A7    A(2,3,4)              120.7934         estimate D2E/DX2                !
 ! A8    A(2,3,6)              122.7169         estimate D2E/DX2                !
 ! A9    A(4,3,6)              116.4896         estimate D2E/DX2                !
 ! A10   A(1,4,3)              124.4658         estimate D2E/DX2                !
 ! A11   A(1,4,13)             114.2822         estimate D2E/DX2                !
 ! A12   A(3,4,13)             121.2521         estimate D2E/DX2                !
 ! A13   A(1,8,9)              122.8547         estimate D2E/DX2                !
 ! A14   A(1,8,19)             116.1913         estimate D2E/DX2                !
 ! A15   A(9,8,19)             120.954          estimate D2E/DX2                !
 ! A16   A(2,9,8)              119.8116         estimate D2E/DX2                !
 ! A17   A(2,9,10)             120.8595         estimate D2E/DX2                !
 ! A18   A(8,9,10)             119.3289         estimate D2E/DX2                !
 ! A19   A(9,10,11)            122.927          estimate D2E/DX2                !
 ! A20   A(9,10,12)            120.0227         estimate D2E/DX2                !
 ! A21   A(11,10,12)           117.0498         estimate D2E/DX2                !
 ! A22   A(15,14,20)            98.3294         estimate D2E/DX2                !
 ! A23   A(15,14,23)            99.96           estimate D2E/DX2                !
 ! A24   A(20,14,23)           101.3998         estimate D2E/DX2                !
 ! A25   A(14,15,16)           107.3515         estimate D2E/DX2                !
 ! A26   A(14,15,17)           111.3867         estimate D2E/DX2                !
 ! A27   A(14,15,18)           110.5391         estimate D2E/DX2                !
 ! A28   A(16,15,17)           109.1481         estimate D2E/DX2                !
 ! A29   A(16,15,18)           108.6371         estimate D2E/DX2                !
 ! A30   A(17,15,18)           109.7012         estimate D2E/DX2                !
 ! A31   A(8,19,20)            108.1393         estimate D2E/DX2                !
 ! A32   A(8,19,21)            110.1509         estimate D2E/DX2                !
 ! A33   A(8,19,22)            110.0799         estimate D2E/DX2                !
 ! A34   A(20,19,21)           108.8139         estimate D2E/DX2                !
 ! A35   A(20,19,22)           108.7966         estimate D2E/DX2                !
 ! A36   A(21,19,22)           110.797          estimate D2E/DX2                !
 ! A37   A(14,20,19)           101.8761         estimate D2E/DX2                !
 ! A38   A(14,23,24)           107.3573         estimate D2E/DX2                !
 ! A39   A(14,23,25)           110.5404         estimate D2E/DX2                !
 ! A40   A(14,23,26)           111.3765         estimate D2E/DX2                !
 ! A41   A(24,23,25)           108.6336         estimate D2E/DX2                !
 ! A42   A(24,23,26)           109.151          estimate D2E/DX2                !
 ! A43   A(25,23,26)           109.7051         estimate D2E/DX2                !
 ! D1    D(7,1,4,3)           -179.9711         estimate D2E/DX2                !
 ! D2    D(7,1,4,13)             0.0109         estimate D2E/DX2                !
 ! D3    D(8,1,4,3)              0.0231         estimate D2E/DX2                !
 ! D4    D(8,1,4,13)          -179.995          estimate D2E/DX2                !
 ! D5    D(4,1,8,9)              0.0555         estimate D2E/DX2                !
 ! D6    D(4,1,8,19)          -179.8783         estimate D2E/DX2                !
 ! D7    D(7,1,8,9)           -179.9504         estimate D2E/DX2                !
 ! D8    D(7,1,8,19)             0.1158         estimate D2E/DX2                !
 ! D9    D(5,2,3,4)           -179.9649         estimate D2E/DX2                !
 ! D10   D(5,2,3,6)              0.0134         estimate D2E/DX2                !
 ! D11   D(9,2,3,4)              0.003          estimate D2E/DX2                !
 ! D12   D(9,2,3,6)            179.9813         estimate D2E/DX2                !
 ! D13   D(3,2,9,8)              0.0718         estimate D2E/DX2                !
 ! D14   D(3,2,9,10)          -179.9308         estimate D2E/DX2                !
 ! D15   D(5,2,9,8)           -179.96           estimate D2E/DX2                !
 ! D16   D(5,2,9,10)             0.0374         estimate D2E/DX2                !
 ! D17   D(2,3,4,1)             -0.0516         estimate D2E/DX2                !
 ! D18   D(2,3,4,13)           179.9676         estimate D2E/DX2                !
 ! D19   D(6,3,4,1)            179.9687         estimate D2E/DX2                !
 ! D20   D(6,3,4,13)            -0.0121         estimate D2E/DX2                !
 ! D21   D(1,8,9,2)             -0.1032         estimate D2E/DX2                !
 ! D22   D(1,8,9,10)           179.8993         estimate D2E/DX2                !
 ! D23   D(19,8,9,2)           179.8276         estimate D2E/DX2                !
 ! D24   D(19,8,9,10)           -0.1699         estimate D2E/DX2                !
 ! D25   D(1,8,19,20)            0.2748         estimate D2E/DX2                !
 ! D26   D(1,8,19,21)         -118.5221         estimate D2E/DX2                !
 ! D27   D(1,8,19,22)          119.01           estimate D2E/DX2                !
 ! D28   D(9,8,19,20)         -179.6604         estimate D2E/DX2                !
 ! D29   D(9,8,19,21)           61.5427         estimate D2E/DX2                !
 ! D30   D(9,8,19,22)          -60.9252         estimate D2E/DX2                !
 ! D31   D(2,9,10,11)          179.7416         estimate D2E/DX2                !
 ! D32   D(2,9,10,12)           -0.0082         estimate D2E/DX2                !
 ! D33   D(8,9,10,11)           -0.261          estimate D2E/DX2                !
 ! D34   D(8,9,10,12)          179.9893         estimate D2E/DX2                !
 ! D35   D(20,14,15,16)        -77.6563         estimate D2E/DX2                !
 ! D36   D(20,14,15,17)         41.7782         estimate D2E/DX2                !
 ! D37   D(20,14,15,18)        164.0103         estimate D2E/DX2                !
 ! D38   D(23,14,15,16)        179.1333         estimate D2E/DX2                !
 ! D39   D(23,14,15,17)        -61.4322         estimate D2E/DX2                !
 ! D40   D(23,14,15,18)         60.7999         estimate D2E/DX2                !
 ! D41   D(15,14,20,19)        132.9531         estimate D2E/DX2                !
 ! D42   D(23,14,20,19)       -125.0509         estimate D2E/DX2                !
 ! D43   D(15,14,23,24)       -179.0657         estimate D2E/DX2                !
 ! D44   D(15,14,23,25)        -60.7324         estimate D2E/DX2                !
 ! D45   D(15,14,23,26)         61.4985         estimate D2E/DX2                !
 ! D46   D(20,14,23,24)         80.247          estimate D2E/DX2                !
 ! D47   D(20,14,23,25)       -161.4197         estimate D2E/DX2                !
 ! D48   D(20,14,23,26)        -39.1888         estimate D2E/DX2                !
 ! D49   D(8,19,20,14)        -179.5722         estimate D2E/DX2                !
 ! D50   D(21,19,20,14)        -59.9297         estimate D2E/DX2                !
 ! D51   D(22,19,20,14)         60.8803         estimate D2E/DX2                !
 --------------------------------------------------------------------------------
 Trust Radius=3.00D-01 FncErr=1.00D-07 GrdErr=1.00D-06
 Number of steps in this run=    130 maximum allowed number of steps=    156.
 GradGradGradGradGradGradGradGradGradGradGradGradGradGradGradGradGradGrad

                          Input orientation:                          
 ---------------------------------------------------------------------
 Center     Atomic      Atomic             Coordinates (Angstroms)
 Number     Number       Type             X           Y           Z
 ---------------------------------------------------------------------
      1          6           0       -0.863792    1.648566    0.836204
      2          6           0       -3.205113    1.685737   -0.772869
      3          6           0       -3.001227    2.619242    0.195689
      4          7           0       -1.881133    2.594452    0.958528
      5          1           0       -4.095386    1.697280   -1.387260
      6          1           0       -3.709393    3.414008    0.402002
      7          8           0        0.120790    1.653340    1.530975
      8          7           0       -1.096386    0.680819   -0.181899
      9          6           0       -2.210685    0.683811   -0.962279
     10          7           0       -2.355920   -0.256274   -1.897646
     11          1           0       -1.668729   -0.979204   -2.061401
     12          1           0       -3.180306   -0.264059   -2.483606
     13          1           0       -1.721692    3.287742    1.682730
     14         16           0        2.773690   -2.463735   -0.260840
     15          6           0        4.303709   -1.462710   -0.288240
     16          1           0        4.332383   -0.937261   -1.246319
     17          1           0        4.315347   -0.729344    0.523824
     18          1           0        5.184888   -2.106603   -0.216222
     19          6           0       -0.049586   -0.349927   -0.354292
     20          1           0        0.734314   -0.160479    0.372651
     21          1           0        0.378265   -0.287923   -1.358394
     22          1           0       -0.467290   -1.343386   -0.171037
     23          6           0        2.943840   -3.256646    1.377936
     24          1           0        2.079300   -3.911400    1.514747
     25          1           0        3.852266   -3.864415    1.417715
     26          1           0        2.961796   -2.513315    2.180735
 ---------------------------------------------------------------------
                    Distance matrix (angstroms):
                    1          2          3          4          5
     1  C    0.000000
     2  C    2.841176   0.000000
     3  C    2.433331   1.360553   0.000000
     4  N    1.394506   2.361445   1.355414   0.000000
     5  H    3.922928   1.081756   2.133759   3.348217   0.000000
     6  H    3.376798   2.149777   1.084305   2.079406   2.509503
     7  O    1.205044   4.046032   3.530290   2.284969   5.127784
     8  N    1.423786   2.409530   2.743807   2.361862   3.388228
     9  C    2.445284   1.424296   2.389925   2.729222   2.181703
    10  N    3.650863   2.399512   3.614840   4.063224   2.665072
    11  H    3.993647   3.335071   4.451833   4.683599   3.675146
    12  H    4.477221   2.594020   3.940065   4.659101   2.426149
    13  H    2.034575   3.285867   2.072533   1.015156   4.193904
    14  S    5.598732   7.295641   7.706798   6.981367   8.109690
    15  C    6.135754   8.156592   8.382041   7.501151   9.040917
    16  H    6.166331   7.994881   8.277073   7.479447   8.831079
    17  H    5.707497   8.004458   8.053133   7.045066   8.959976
    18  H    7.196904   9.224089   9.461277   8.567882  10.097739
    19  C    2.464586   3.778424   4.222633   3.707752   4.650438
    20  H    2.457940   4.498868   4.659660   3.843626   5.465762
    21  H    3.179458   4.132647   4.720990   4.333716   4.894427
    22  H    3.181749   4.127162   4.717811   4.333756   4.887528
    23  C    6.233189   8.176964   8.442013   7.595500   9.040929
    24  H    6.327356   8.030327   8.378601   7.636787   8.832083
    25  H    7.278208   9.241723   9.513229   8.648681  10.097797
    26  H    5.810692   8.024125   8.114259   7.144021   8.958991
                    6          7          8          9         10
     6  H    0.000000
     7  O    4.364039   0.000000
     8  N    3.826104   2.315438   0.000000
     9  C    3.400201   3.548532   1.360391   0.000000
    10  N    4.537757   4.640707   2.325587   1.334078   0.000000
    11  H    5.434425   4.799774   2.572116   2.065770   1.010779
    12  H    4.704768   5.539902   3.245516   2.037905   1.011446
    13  H    2.367945   2.467598   3.265562   3.743747   5.077537
    14  S    8.775966   5.215246   4.987178   5.936586   5.819357
    15  C    9.405776   5.524140   5.810942   6.891967   6.956747
    16  H    9.290892   5.671163   5.763914   6.746873   6.754359
    17  H    9.032090   4.928067   5.636795   6.840658   7.112884
    18  H   10.486543   6.544842   6.872067   7.939617   7.944475
    19  C    5.304090   2.756146   1.479171   2.471561   2.776669
    20  H    5.703012   2.237871   2.089682   3.341838   3.835749
    21  H    5.788975   3.490451   2.120660   2.793535   2.787035
    22  H    5.785534   3.496148   2.119737   2.788372   2.780272
    23  C    9.471831   5.665774   5.853216   6.897314   6.915137
    24  H    9.402594   5.899352   5.835415   6.756892   6.683977
    25  H   10.544468   6.662009   6.907031   7.944187   7.908974
    26  H    9.099550   5.084734   5.679205   6.845050   7.071459
                   11         12         13         14         15
    11  H    0.000000
    12  H    1.724690   0.000000
    13  H    5.676984   5.665792   0.000000
    14  S    5.018061   6.725276   7.554165   0.000000
    15  C    6.248831   7.890936   7.921930   1.828595   0.000000
    16  H    6.056357   7.643597   7.942405   2.393912   1.093085
    17  H    6.523418   8.089866   7.343424   2.449595   1.094262
    18  H    7.186639   8.860726   8.966929   2.437911   1.093737
    19  C    2.435536   3.787184   4.491997   3.528145   4.493754
    20  H    3.517035   4.846977   4.431535   3.140916   3.856574
    21  H    2.272064   3.732305   5.142337   3.417140   4.234910
    22  H    2.269264   3.724698   5.143668   3.430335   4.773930
    23  C    6.188019   7.834044   8.042954   1.828454   2.800641
    24  H    5.952674   7.546746   8.142690   2.393871   3.767604
    25  H    7.135130   8.811353   9.071526   2.437781   2.980314
    26  H    6.464594   8.033719   7.472304   2.449312   3.000056
                   16         17         18         19         20
    16  H    0.000000
    17  H    1.782393   0.000000
    18  H    1.776295   1.789025   0.000000
    19  C    4.510247   4.468522   5.523105   0.000000
    20  H    4.021263   3.629085   4.893034   1.085742   0.000000
    21  H    4.008647   4.386139   5.264578   1.093216   1.771872
    22  H    4.935385   4.871704   5.703653   1.093170   1.771643
    23  C    3.767534   2.999632   2.980979   4.517768   3.934317
    24  H    4.641699   4.013392   3.987258   4.550775   4.145212
    25  H    3.986956   3.292743   2.745093   5.542209   4.953072
    26  H    4.013372   2.785679   3.294382   4.491662   3.710348
                   21         22         23         24         25
    21  H    0.000000
    22  H    1.799662   0.000000
    23  C    4.783617   4.206624   0.000000
    24  H    4.927276   3.990199   1.093092   0.000000
    25  H    5.706729   5.247693   1.093711   1.776241   0.000000
    26  H    4.914513   4.319513   1.094235   1.782409   1.789024
                   26
    26  H    0.000000
 Symmetry turned off by external request.
 Stoichiometry    C7H14N3OS(1+)
 Framework group  C1[X(C7H14N3OS)]
 Deg. of freedom    72
 Full point group                 C1      NOp   1
 Rotational constants (GHZ):      1.4606318      0.2837587      0.2535126
 Standard basis: 6-31G(d) (6D, 7F)
   212 basis functions,   416 primitive gaussians,   212 cartesian basis functions
    50 alpha electrons       50 beta electrons
       nuclear repulsion energy       771.7067633167 Hartrees.
 NAtoms=   26 NActive=   26 NUniq=   26 SFac= 1.00D+00 NAtFMM=   60 NAOKFM=F Big=F
 Integral buffers will be    131072 words long.
 Raffenetti 2 integral format.
 Two-electron integral symmetry is turned off.
 One-electron integrals computed using PRISM.
 NBasis=   212 RedAO= T EigKep=  1.08D-03  NBF=   212
 NBsUse=   212 1.00D-06 EigRej= -1.00D+00 NBFU=   212
 ExpMin= 1.17D-01 ExpMax= 2.19D+04 ExpMxC= 3.30D+03 IAcc=1 IRadAn=         1 AccDes= 0.00D+00
 Harris functional with IExCor=  402 and IRadAn=       1 diagonalized for initial guess.
 HarFok:  IExCor=  402 AccDes= 0.00D+00 IRadAn=         1 IDoV= 1 UseB2=F ITyADJ=14
 ICtDFT=  3500011 ScaDFX=  1.000000  1.000000  1.000000  1.000000
 FoFCou: FMM=F IPFlag=           0 FMFlag=      100000 FMFlg1=           0
         NFxFlg=           0 DoJE=T BraDBF=F KetDBF=T FulRan=T
         wScrn=  0.000000 ICntrl=     500 IOpCl=  0 I1Cent=   200000004 NGrid=           0
         NMat0=    1 NMatS0=      1 NMatT0=    0 NMatD0=    1 NMtDS0=    0 NMtDT0=    0
 Symmetry not used in FoFCou.
 Keep R1 ints in memory in canonical form, NReq=259882001.
 Requested convergence on RMS density matrix=1.00D-08 within 128 cycles.
 Requested convergence on MAX density matrix=1.00D-06.
 Requested convergence on             energy=1.00D-06.
 No special actions if energy rises.
 Integral accuracy reduced to 1.0D-05 until final iterations.
 Initial convergence to 1.0D-05 achieved.  Increase integral accuracy.
 SCF Done:  E(RB3LYP) =  -912.649319683     A.U. after   15 cycles
            NFock= 15  Conv=0.36D-08     -V/T= 2.0069

 **********************************************************************

            Population analysis using the SCF density.

 **********************************************************************

 Alpha  occ. eigenvalues --  -88.95748 -19.29350 -14.58124 -14.57298 -14.56177
 Alpha  occ. eigenvalues --  -10.50248 -10.49106 -10.43798 -10.37767 -10.37347
 Alpha  occ. eigenvalues --  -10.29084 -10.29077  -8.01842  -5.98364  -5.97998
 Alpha  occ. eigenvalues --   -5.97300  -1.24313  -1.18021  -1.13992  -1.09531
 Alpha  occ. eigenvalues --   -0.97290  -0.90290  -0.87662  -0.85909  -0.82889
 Alpha  occ. eigenvalues --   -0.78584  -0.76698  -0.74288  -0.72590  -0.68516
 Alpha  occ. eigenvalues --   -0.68177  -0.66024  -0.65096  -0.61829  -0.60104
 Alpha  occ. eigenvalues --   -0.59176  -0.57720  -0.56428  -0.55264  -0.52177
 Alpha  occ. eigenvalues --   -0.52048  -0.51879  -0.50585  -0.48929  -0.45447
 Alpha  occ. eigenvalues --   -0.44697  -0.44653  -0.41381  -0.39898  -0.30793
 Alpha virt. eigenvalues --   -0.22105  -0.16036  -0.09300  -0.08745  -0.05883
 Alpha virt. eigenvalues --   -0.04917  -0.04530  -0.03600  -0.01500  -0.00519
 Alpha virt. eigenvalues --   -0.00169   0.01117   0.02130   0.03019   0.03411
 Alpha virt. eigenvalues --    0.05024   0.05515   0.06764   0.07906   0.08279
 Alpha virt. eigenvalues --    0.08978   0.10429   0.11975   0.12909   0.15749
 Alpha virt. eigenvalues --    0.18050   0.21846   0.28120   0.28991   0.30096
 Alpha virt. eigenvalues --    0.31372   0.31701   0.32000   0.33695   0.36421
 Alpha virt. eigenvalues --    0.36604   0.37959   0.38775   0.41208   0.41349
 Alpha virt. eigenvalues --    0.42995   0.43147   0.43865   0.47173   0.47401
 Alpha virt. eigenvalues --    0.47720   0.49357   0.50761   0.51749   0.51869
 Alpha virt. eigenvalues --    0.55573   0.57969   0.63000   0.63968   0.65733
 Alpha virt. eigenvalues --    0.66198   0.67158   0.67913   0.68891   0.69250
 Alpha virt. eigenvalues --    0.71015   0.72123   0.72557   0.73720   0.74912
 Alpha virt. eigenvalues --    0.77669   0.78094   0.78280   0.79987   0.80307
 Alpha virt. eigenvalues --    0.81112   0.81183   0.82750   0.82973   0.83784
 Alpha virt. eigenvalues --    0.84941   0.85113   0.89200   0.89849   0.91968
 Alpha virt. eigenvalues --    0.93139   0.95008   0.98609   1.02007   1.03563
 Alpha virt. eigenvalues --    1.08503   1.10268   1.12160   1.18343   1.19349
 Alpha virt. eigenvalues --    1.19662   1.21470   1.23047   1.25167   1.25302
 Alpha virt. eigenvalues --    1.25656   1.27839   1.39018   1.44932   1.46682
 Alpha virt. eigenvalues --    1.49197   1.54788   1.57643   1.59178   1.59747
 Alpha virt. eigenvalues --    1.60024   1.64406   1.66662   1.67095   1.67476
 Alpha virt. eigenvalues --    1.70286   1.71597   1.72997   1.76845   1.78693
 Alpha virt. eigenvalues --    1.85736   1.89576   1.89939   1.91577   1.98395
 Alpha virt. eigenvalues --    1.99752   1.99871   2.01300   2.06500   2.08297
 Alpha virt. eigenvalues --    2.10850   2.11322   2.13002   2.15760   2.16008
 Alpha virt. eigenvalues --    2.16437   2.16508   2.16742   2.20893   2.21355
 Alpha virt. eigenvalues --    2.27558   2.29084   2.39811   2.44451   2.47706
 Alpha virt. eigenvalues --    2.47731   2.50392   2.53284   2.59966   2.63735
 Alpha virt. eigenvalues --    2.70552   2.81232   2.83564   3.05999   3.24626
 Alpha virt. eigenvalues --    3.66686   3.80166   3.82521   3.85386   3.94765
 Alpha virt. eigenvalues --    4.04526   4.07273   4.11460   4.11625   4.16677
 Alpha virt. eigenvalues --    4.35186   4.46129
          Condensed to atoms (all electrons):
               1          2          3          4          5          6
     1  C    4.162504  -0.016774  -0.025164   0.266370   0.000374   0.002126
     2  C   -0.016774   4.979520   0.575322  -0.022995   0.367294  -0.026616
     3  C   -0.025164   0.575322   4.679897   0.321571  -0.026292   0.367672
     4  N    0.266370  -0.022995   0.321571   7.004391   0.003201  -0.039463
     5  H    0.000374   0.367294  -0.026292   0.003201   0.477780  -0.003060
     6  H    0.002126  -0.026616   0.367672  -0.039463  -0.003060   0.458550
     7  O    0.627774   0.000657   0.001863  -0.081949   0.000003  -0.000078
     8  N    0.232576  -0.041995  -0.015204  -0.100938   0.003327  -0.000170
     9  C   -0.018724   0.476935  -0.016869  -0.022138  -0.029932   0.003065
    10  N    0.000559  -0.067477   0.004377   0.000143  -0.005646  -0.000109
    11  H    0.000114   0.003897  -0.000136  -0.000007  -0.000029   0.000002
    12  H    0.000024  -0.003605   0.000127   0.000012   0.003310  -0.000003
    13  H   -0.010754   0.002990  -0.022400   0.303397  -0.000102  -0.004460
    14  S   -0.000028   0.000000   0.000000  -0.000000  -0.000000  -0.000000
    15  C   -0.000000   0.000000  -0.000000  -0.000000   0.000000   0.000000
    16  H   -0.000000   0.000000  -0.000000  -0.000000   0.000000  -0.000000
    17  H    0.000000  -0.000000  -0.000000   0.000000   0.000000   0.000000
    18  H   -0.000000   0.000000   0.000000   0.000000  -0.000000  -0.000000
    19  C   -0.028648   0.004012  -0.000040   0.002883  -0.000085   0.000008
    20  H   -0.000263  -0.000174  -0.000038   0.000843   0.000001   0.000000
    21  H    0.001147  -0.000053   0.000006  -0.000082  -0.000000  -0.000000
    22  H    0.001222  -0.000052   0.000006  -0.000081  -0.000000  -0.000000
    23  C    0.000000   0.000000  -0.000000  -0.000000   0.000000   0.000000
    24  H   -0.000000   0.000000  -0.000000  -0.000000   0.000000  -0.000000
    25  H   -0.000000   0.000000   0.000000   0.000000  -0.000000  -0.000000
    26  H    0.000000  -0.000000  -0.000000   0.000000   0.000000   0.000000
               7          8          9         10         11         12
     1  C    0.627774   0.232576  -0.018724   0.000559   0.000114   0.000024
     2  C    0.000657  -0.041995   0.476935  -0.067477   0.003897  -0.003605
     3  C    0.001863  -0.015204  -0.016869   0.004377  -0.000136   0.000127
     4  N   -0.081949  -0.100938  -0.022138   0.000143  -0.000007   0.000012
     5  H    0.000003   0.003327  -0.029932  -0.005646  -0.000029   0.003310
     6  H   -0.000078  -0.000170   0.003065  -0.000109   0.000002  -0.000003
     7  O    7.954737  -0.083398   0.000251  -0.000058   0.000001   0.000001
     8  N   -0.083398   7.178143   0.350937  -0.072511  -0.008073   0.003354
     9  C    0.000251   0.350937   4.272779   0.369590  -0.014658  -0.019295
    10  N   -0.000058  -0.072511   0.369590   6.922018   0.307028   0.318794
    11  H    0.000001  -0.008073  -0.014658   0.307028   0.314139  -0.017611
    12  H    0.000001   0.003354  -0.019295   0.318794  -0.017611   0.315909
    13  H    0.004808   0.004682   0.000329   0.000012  -0.000000  -0.000000
    14  S   -0.000022   0.001047  -0.000022   0.000004   0.000024   0.000000
    15  C    0.000001  -0.000002   0.000000  -0.000000  -0.000000   0.000000
    16  H    0.000000  -0.000000  -0.000000   0.000000  -0.000000   0.000000
    17  H    0.000000  -0.000001   0.000000  -0.000000  -0.000000  -0.000000
    18  H    0.000000   0.000000  -0.000000   0.000000   0.000000   0.000000
    19  C   -0.011785   0.203521  -0.030347  -0.010541   0.011895   0.000144
    20  H    0.019269  -0.027264   0.002592   0.000363  -0.000185  -0.000001
    21  H    0.000398  -0.036922  -0.002890   0.001755   0.001853   0.000058
    22  H    0.000405  -0.036990  -0.002972   0.001842   0.001802   0.000061
    23  C    0.000000  -0.000002   0.000000  -0.000000  -0.000000   0.000000
    24  H    0.000000  -0.000000  -0.000000   0.000000  -0.000000   0.000000
    25  H    0.000000   0.000000  -0.000000   0.000000   0.000000   0.000000
    26  H    0.000000  -0.000001   0.000000  -0.000000  -0.000000  -0.000000
              13         14         15         16         17         18
     1  C   -0.010754  -0.000028  -0.000000  -0.000000   0.000000  -0.000000
     2  C    0.002990   0.000000   0.000000   0.000000  -0.000000   0.000000
     3  C   -0.022400   0.000000  -0.000000  -0.000000  -0.000000   0.000000
     4  N    0.303397  -0.000000  -0.000000  -0.000000   0.000000   0.000000
     5  H   -0.000102  -0.000000   0.000000   0.000000   0.000000  -0.000000
     6  H   -0.004460  -0.000000   0.000000  -0.000000   0.000000  -0.000000
     7  O    0.004808  -0.000022   0.000001   0.000000   0.000000   0.000000
     8  N    0.004682   0.001047  -0.000002  -0.000000  -0.000001   0.000000
     9  C    0.000329  -0.000022   0.000000  -0.000000   0.000000  -0.000000
    10  N    0.000012   0.000004  -0.000000   0.000000  -0.000000   0.000000
    11  H   -0.000000   0.000024  -0.000000  -0.000000  -0.000000   0.000000
    12  H   -0.000000   0.000000   0.000000   0.000000  -0.000000   0.000000
    13  H    0.321168  -0.000000   0.000000   0.000000   0.000000  -0.000000
    14  S   -0.000000  15.681006   0.256085  -0.032087  -0.047781  -0.041775
    15  C    0.000000   0.256085   5.241647   0.370993   0.370026   0.370921
    16  H    0.000000  -0.032087   0.370993   0.520424  -0.025197  -0.023101
    17  H    0.000000  -0.047781   0.370026  -0.025197   0.552558  -0.034377
    18  H   -0.000000  -0.041775   0.370921  -0.023101  -0.034377   0.529073
    19  C   -0.000070  -0.002092  -0.000213  -0.000003   0.000007   0.000004
    20  H   -0.000019   0.005448   0.000084   0.000000  -0.000023   0.000004
    21  H    0.000002   0.002141  -0.000020   0.000019  -0.000008   0.000001
    22  H    0.000002   0.002183  -0.000011  -0.000000  -0.000002   0.000000
    23  C    0.000000   0.256120  -0.026533   0.002554  -0.002739  -0.003694
    24  H    0.000000  -0.032104   0.002555  -0.000066  -0.000016  -0.000001
    25  H   -0.000000  -0.041756  -0.003683  -0.000001  -0.001059   0.005549
    26  H    0.000000  -0.047737  -0.002750  -0.000016   0.005366  -0.001059
              19         20         21         22         23         24
     1  C   -0.028648  -0.000263   0.001147   0.001222   0.000000  -0.000000
     2  C    0.004012  -0.000174  -0.000053  -0.000052   0.000000   0.000000
     3  C   -0.000040  -0.000038   0.000006   0.000006  -0.000000  -0.000000
     4  N    0.002883   0.000843  -0.000082  -0.000081  -0.000000  -0.000000
     5  H   -0.000085   0.000001  -0.000000  -0.000000   0.000000   0.000000
     6  H    0.000008   0.000000  -0.000000  -0.000000   0.000000  -0.000000
     7  O   -0.011785   0.019269   0.000398   0.000405   0.000000   0.000000
     8  N    0.203521  -0.027264  -0.036922  -0.036990  -0.000002  -0.000000
     9  C   -0.030347   0.002592  -0.002890  -0.002972   0.000000  -0.000000
    10  N   -0.010541   0.000363   0.001755   0.001842  -0.000000   0.000000
    11  H    0.011895  -0.000185   0.001853   0.001802  -0.000000  -0.000000
    12  H    0.000144  -0.000001   0.000058   0.000061   0.000000   0.000000
    13  H   -0.000070  -0.000019   0.000002   0.000002   0.000000   0.000000
    14  S   -0.002092   0.005448   0.002141   0.002183   0.256120  -0.032104
    15  C   -0.000213   0.000084  -0.000020  -0.000011  -0.026533   0.002555
    16  H   -0.000003   0.000000   0.000019  -0.000000   0.002554  -0.000066
    17  H    0.000007  -0.000023  -0.000008  -0.000002  -0.002739  -0.000016
    18  H    0.000004   0.000004   0.000001   0.000000  -0.003694  -0.000001
    19  C    5.128593   0.364981   0.375851   0.375550  -0.000189  -0.000006
    20  H    0.364981   0.394753  -0.016014  -0.015942   0.000018   0.000001
    21  H    0.375851  -0.016014   0.495192  -0.033888  -0.000012  -0.000000
    22  H    0.375550  -0.015942  -0.033888   0.496284  -0.000008   0.000024
    23  C   -0.000189   0.000018  -0.000012  -0.000008   5.241354   0.370971
    24  H   -0.000006   0.000001  -0.000000   0.000024   0.370971   0.520780
    25  H    0.000004   0.000004   0.000000   0.000001   0.370941  -0.023101
    26  H    0.000013  -0.000039  -0.000001  -0.000011   0.369950  -0.025249
              25         26
     1  C   -0.000000   0.000000
     2  C    0.000000  -0.000000
     3  C    0.000000  -0.000000
     4  N    0.000000   0.000000
     5  H   -0.000000   0.000000
     6  H   -0.000000   0.000000
     7  O    0.000000   0.000000
     8  N    0.000000  -0.000001
     9  C   -0.000000   0.000000
    10  N    0.000000  -0.000000
    11  H    0.000000  -0.000000
    12  H    0.000000  -0.000000
    13  H   -0.000000   0.000000
    14  S   -0.041756  -0.047737
    15  C   -0.003683  -0.002750
    16  H   -0.000001  -0.000016
    17  H   -0.001059   0.005366
    18  H    0.005549  -0.001059
    19  C    0.000004   0.000013
    20  H    0.000004  -0.000039
    21  H    0.000000  -0.000001
    22  H    0.000001  -0.000011
    23  C    0.370941   0.369950
    24  H   -0.023101  -0.025249
    25  H    0.529034  -0.034408
    26  H   -0.034408   0.553049
 Mulliken charges:
               1
     1  C    0.805565
     2  C   -0.230884
     3  C    0.155301
     4  N   -0.635157
     5  H    0.209857
     6  H    0.242534
     7  O   -0.432878
     8  N   -0.554113
     9  C    0.681369
    10  N   -0.770143
    11  H    0.399943
    12  H    0.398719
    13  H    0.400417
    14  S    0.041346
    15  C   -0.579099
    16  H    0.186479
    17  H    0.183244
    18  H    0.198453
    19  C   -0.383446
    20  H    0.271600
    21  H    0.211466
    22  H    0.210575
    23  C   -0.578731
    24  H    0.186213
    25  H    0.198475
    26  H    0.182894
 Sum of Mulliken charges =   1.00000
 Mulliken charges with hydrogens summed into heavy atoms:
               1
     1  C    0.805565
     2  C   -0.021027
     3  C    0.397835
     4  N   -0.234740
     7  O   -0.432878
     8  N   -0.554113
     9  C    0.681369
    10  N    0.028520
    14  S    0.041346
    15  C   -0.010923
    19  C    0.310195
    23  C   -0.011149
 Electronic spatial extent (au):  <R**2>=           4213.7541
 Charge=              1.0000 electrons
 Dipole moment (field-independent basis, Debye):
    X=             -9.1846    Y=              4.1612    Z=             -2.6552  Tot=             10.4270
 Quadrupole moment (field-independent basis, Debye-Ang):
   XX=            -31.9728   YY=            -53.4334   ZZ=            -65.2426
   XY=            -22.2752   XZ=             11.1975   YZ=              2.4440
 Traceless Quadrupole moment (field-independent basis, Debye-Ang):
   XX=             18.2435   YY=             -3.2171   ZZ=            -15.0263
   XY=            -22.2752   XZ=             11.1975   YZ=              2.4440
 Octapole moment (field-independent basis, Debye-Ang**2):
  XXX=            -64.9186  YYY=             79.8475  ZZZ=            -17.9881  XYY=            -61.9425
  XXY=             41.3104  XXZ=            -24.4410  XZZ=            -38.6896  YZZ=              5.3640
  YYZ=             41.0228  XYZ=            -33.9050
 Hexadecapole moment (field-independent basis, Debye-Ang**3):
 XXXX=          -2419.6928 YYYY=          -1611.1586 ZZZZ=           -470.6651 XXXY=            633.8468
 XXXZ=             -0.8429 YYYX=            733.7842 YYYZ=              2.6660 ZZZX=            -95.9168
 ZZZY=              0.7557 XXYY=           -594.5026 XXZZ=           -482.4682 YYZZ=           -360.6011
 XXYZ=            -22.7584 YYXZ=            -49.7496 ZZXY=            301.9805
 N-N= 7.717067633167D+02 E-N=-3.670313249362D+03  KE= 9.063665306657D+02
 Calling FoFJK, ICntrl=      2127 FMM=F ISym2X=0 I1Cent= 0 IOpClX= 0 NMat=1 NMatS=1 NMatT=0.
 -------------------------------------------------------------------
 Center     Atomic                   Forces (Hartrees/Bohr)
 Number     Number              X              Y              Z
 -------------------------------------------------------------------
      1        6          -0.000059205    0.000064665    0.000016961
      2        6          -0.000026676    0.000003269   -0.000035359
      3        6          -0.000061949    0.000019676   -0.000049454
      4        7          -0.000093530    0.000057839   -0.000029844
      5        1           0.000001642   -0.000001874   -0.000002839
      6        1          -0.000004181   -0.000001538   -0.000007199
      7        8          -0.000112637    0.000121010    0.000039805
      8        7          -0.000031322    0.000049852    0.000029686
      9        6          -0.000009540    0.000012510    0.000001025
     10        7           0.000026947   -0.000004378    0.000017191
     11        1           0.000000576    0.000003149    0.000004451
     12        1           0.000006299   -0.000001914    0.000002167
     13        1          -0.000009456    0.000002881   -0.000005531
     14       16           0.000139264    0.000054623    0.000216420
     15        6           0.000207438   -0.000155267   -0.000017504
     16        1           0.000024075   -0.000022282    0.000057915
     17        1           0.000023034   -0.000150080   -0.000138590
     18        1          -0.000158371    0.000081511   -0.000036096
     19        6          -0.000007761    0.000056352    0.000067303
     20        1          -0.000004464    0.000007489    0.000004537
     21        1           0.000000127    0.000004268    0.000007650
     22        1          -0.000000534    0.000004945    0.000006452
     23        6           0.000206949   -0.000165049    0.000005139
     24        1           0.000055574    0.000016623    0.000014414
     25        1          -0.000142273    0.000078098   -0.000036487
     26        1           0.000029970   -0.000136378   -0.000132213
 -------------------------------------------------------------------
 Cartesian Forces:  Max     0.000216420 RMS     0.000074002

 GradGradGradGradGradGradGradGradGradGradGradGradGradGradGradGradGradGrad
 Berny optimization.
 FormGI is forming the generalized inverse of G from B-inverse, IUseBI=4.
 Internal  Forces:  Max     0.001673865 RMS     0.000280396
 Search for a local minimum.
 Step number   1 out of a maximum of  130
 All quantities printed in internal units (Hartrees-Bohrs-Radians)
 Mixed Optimization -- En-DIIS/RFO-DIIS
 Second derivative matrix not updated -- first step.
 ITU=  0
     Eigenvalues ---    0.00230   0.00230   0.00230   0.00291   0.00644
     Eigenvalues ---    0.01181   0.01369   0.01561   0.01713   0.01993
     Eigenvalues ---    0.02033   0.02141   0.02206   0.02327   0.02469
     Eigenvalues ---    0.02564   0.02564   0.04682   0.06463   0.06917
     Eigenvalues ---    0.06918   0.06922   0.07420   0.07420   0.08053
     Eigenvalues ---    0.10927   0.13680   0.16000   0.16000   0.16000
     Eigenvalues ---    0.16000   0.16000   0.16000   0.16000   0.16000
     Eigenvalues ---    0.16000   0.16000   0.16000   0.16000   0.17181
     Eigenvalues ---    0.22080   0.23425   0.23988   0.23998   0.24920
     Eigenvalues ---    0.25000   0.25000   0.25000   0.25000   0.34325
     Eigenvalues ---    0.34328   0.34384   0.34387   0.34444   0.34449
     Eigenvalues ---    0.34458   0.34459   0.34665   0.35309   0.35479
     Eigenvalues ---    0.35783   0.39786   0.40865   0.45120   0.45292
     Eigenvalues ---    0.45731   0.45842   0.49414   0.52146   0.53467
     Eigenvalues ---    0.58553   1.02329
 RFO step:  Lambda=-9.34772874D-05 EMin= 2.30000000D-03
 Linear search not attempted -- first point.
 Iteration  1 RMS(Cart)=  0.03587827 RMS(Int)=  0.00020647
 Iteration  2 RMS(Cart)=  0.00048361 RMS(Int)=  0.00000427
 Iteration  3 RMS(Cart)=  0.00000006 RMS(Int)=  0.00000427
 Variable       Old X    -DE/DX   Delta X   Delta X   Delta X     New X
                                 (Linear)    (Quad)   (Total)
    R1        2.63523   0.00021   0.00000   0.00047   0.00047   2.63570
    R2        2.27720  -0.00007   0.00000  -0.00007  -0.00007   2.27714
    R3        2.69057   0.00021   0.00000   0.00052   0.00052   2.69109
    R4        2.57107  -0.00011   0.00000  -0.00023  -0.00023   2.57084
    R5        2.04422   0.00000   0.00000   0.00000   0.00000   2.04422
    R6        2.69153  -0.00004   0.00000  -0.00010  -0.00010   2.69142
    R7        2.56136   0.00003   0.00000   0.00005   0.00005   2.56141
    R8        2.04904   0.00000   0.00000   0.00000   0.00000   2.04904
    R9        1.91837  -0.00000   0.00000  -0.00001  -0.00001   1.91836
   R10        2.57077   0.00007   0.00000   0.00014   0.00014   2.57091
   R11        2.79523   0.00049   0.00000   0.00141   0.00141   2.79663
   R12        2.52104  -0.00002   0.00000  -0.00003  -0.00003   2.52101
   R13        1.91010  -0.00000   0.00000  -0.00000  -0.00000   1.91009
   R14        1.91135  -0.00001   0.00000  -0.00001  -0.00001   1.91134
   R15        3.45554  -0.00005   0.00000  -0.00019  -0.00019   3.45535
   R16        5.93547   0.00055   0.00000   0.04657   0.04657   5.98204
   R17        3.45528  -0.00003   0.00000  -0.00014  -0.00014   3.45513
   R18        2.06563  -0.00006   0.00000  -0.00018  -0.00018   2.06546
   R19        2.06786  -0.00020   0.00000  -0.00059  -0.00059   2.06727
   R20        2.06686  -0.00018   0.00000  -0.00052  -0.00052   2.06634
   R21        2.05176   0.00017   0.00000   0.00048   0.00048   2.05223
   R22        2.06588  -0.00001   0.00000  -0.00002  -0.00002   2.06586
   R23        2.06579  -0.00000   0.00000  -0.00001  -0.00001   2.06578
   R24        2.06564  -0.00005   0.00000  -0.00015  -0.00015   2.06549
   R25        2.06681  -0.00016   0.00000  -0.00047  -0.00047   2.06634
   R26        2.06780  -0.00019   0.00000  -0.00055  -0.00055   2.06725
    A1        2.14457  -0.00015   0.00000  -0.00065  -0.00065   2.14392
    A2        1.98732  -0.00005   0.00000  -0.00012  -0.00012   1.98720
    A3        2.15130   0.00020   0.00000   0.00077   0.00077   2.15206
    A4        2.11803   0.00002   0.00000   0.00014   0.00014   2.11818
    A5        2.06315  -0.00003   0.00000  -0.00024  -0.00024   2.06291
    A6        2.10201   0.00001   0.00000   0.00009   0.00009   2.10210
    A7        2.10824  -0.00005   0.00000  -0.00028  -0.00028   2.10796
    A8        2.14181   0.00002   0.00000   0.00009   0.00009   2.14190
    A9        2.03313   0.00003   0.00000   0.00020   0.00020   2.03333
   A10        2.17234   0.00011   0.00000   0.00051   0.00051   2.17285
   A11        1.99460  -0.00004   0.00000  -0.00019  -0.00019   1.99441
   A12        2.11625  -0.00007   0.00000  -0.00032  -0.00032   2.11592
   A13        2.14422  -0.00024   0.00000  -0.00089  -0.00089   2.14333
   A14        2.02792   0.00115   0.00000   0.00456   0.00456   2.03248
   A15        2.11105  -0.00091   0.00000  -0.00367  -0.00367   2.10737
   A16        2.09111   0.00026   0.00000   0.00101   0.00101   2.09212
   A17        2.10940  -0.00007   0.00000  -0.00029  -0.00029   2.10911
   A18        2.08268  -0.00018   0.00000  -0.00073  -0.00073   2.08195
   A19        2.14548  -0.00001   0.00000  -0.00005  -0.00005   2.14543
   A20        2.09479   0.00001   0.00000   0.00004   0.00004   2.09483
   A21        2.04291   0.00000   0.00000   0.00001   0.00001   2.04291
   A22        1.71617   0.00035   0.00000   0.00687   0.00686   1.72303
   A23        1.74463  -0.00012   0.00000   0.00060   0.00057   1.74520
   A24        1.76976   0.00038   0.00000   0.00733   0.00732   1.77708
   A25        1.87364   0.00005   0.00000   0.00034   0.00034   1.87398
   A26        1.94407   0.00003   0.00000   0.00021   0.00021   1.94427
   A27        1.92927  -0.00005   0.00000  -0.00042  -0.00042   1.92885
   A28        1.90499  -0.00001   0.00000   0.00011   0.00011   1.90510
   A29        1.89608  -0.00001   0.00000  -0.00017  -0.00017   1.89590
   A30        1.91465   0.00000   0.00000  -0.00005  -0.00005   1.91459
   A31        1.88739   0.00167   0.00000   0.01189   0.01189   1.89928
   A32        1.92250  -0.00042   0.00000  -0.00276  -0.00277   1.91973
   A33        1.92126  -0.00035   0.00000  -0.00189  -0.00190   1.91936
   A34        1.89916  -0.00051   0.00000  -0.00281  -0.00281   1.89635
   A35        1.89886  -0.00047   0.00000  -0.00200  -0.00201   1.89685
   A36        1.93377   0.00011   0.00000  -0.00208  -0.00209   1.93168
   A37        1.77807  -0.00122   0.00000  -0.00488  -0.00488   1.77319
   A38        1.87374   0.00005   0.00000   0.00033   0.00033   1.87407
   A39        1.92929  -0.00006   0.00000  -0.00046  -0.00046   1.92883
   A40        1.94389   0.00003   0.00000   0.00022   0.00022   1.94411
   A41        1.89601  -0.00001   0.00000  -0.00019  -0.00019   1.89582
   A42        1.90504  -0.00000   0.00000   0.00018   0.00018   1.90522
   A43        1.91471   0.00000   0.00000  -0.00007  -0.00007   1.91465
    D1       -3.14109  -0.00000   0.00000  -0.00006  -0.00006  -3.14115
    D2        0.00019  -0.00000   0.00000  -0.00005  -0.00005   0.00014
    D3        0.00040  -0.00000   0.00000  -0.00001  -0.00001   0.00040
    D4       -3.14150   0.00000   0.00000   0.00001   0.00001  -3.14150
    D5        0.00097  -0.00001   0.00000  -0.00015  -0.00015   0.00082
    D6       -3.13947  -0.00002   0.00000  -0.00151  -0.00151  -3.14098
    D7       -3.14073  -0.00000   0.00000  -0.00009  -0.00009  -3.14082
    D8        0.00202  -0.00002   0.00000  -0.00146  -0.00146   0.00056
    D9       -3.14098   0.00000   0.00000   0.00004   0.00004  -3.14094
   D10        0.00023   0.00000   0.00000   0.00014   0.00014   0.00038
   D11        0.00005  -0.00000   0.00000  -0.00013  -0.00012  -0.00007
   D12        3.14127   0.00000   0.00000  -0.00002  -0.00002   3.14124
   D13        0.00125  -0.00000   0.00000  -0.00002  -0.00002   0.00123
   D14       -3.14038   0.00001   0.00000   0.00049   0.00049  -3.13990
   D15       -3.14089  -0.00001   0.00000  -0.00019  -0.00019  -3.14108
   D16        0.00065   0.00001   0.00000   0.00033   0.00032   0.00098
   D17       -0.00090   0.00000   0.00000   0.00014   0.00014  -0.00076
   D18        3.14103   0.00000   0.00000   0.00013   0.00013   3.14116
   D19        3.14105   0.00000   0.00000   0.00005   0.00005   3.14109
   D20       -0.00021   0.00000   0.00000   0.00003   0.00003  -0.00018
   D21       -0.00180   0.00001   0.00000   0.00016   0.00016  -0.00164
   D22        3.13984  -0.00000   0.00000  -0.00034  -0.00034   3.13950
   D23        3.13858   0.00003   0.00000   0.00159   0.00159   3.14017
   D24       -0.00297   0.00002   0.00000   0.00109   0.00109  -0.00188
   D25        0.00480  -0.00004   0.00000  -0.00249  -0.00249   0.00231
   D26       -2.06860  -0.00018   0.00000  -0.00462  -0.00462  -2.07322
   D27        2.07712   0.00019   0.00000   0.00110   0.00110   2.07822
   D28       -3.13566  -0.00006   0.00000  -0.00382  -0.00383  -3.13949
   D29        1.07412  -0.00020   0.00000  -0.00596  -0.00595   1.06817
   D30       -1.06334   0.00018   0.00000  -0.00024  -0.00024  -1.06358
   D31        3.13708  -0.00001   0.00000  -0.00029  -0.00029   3.13679
   D32       -0.00014  -0.00000   0.00000  -0.00018  -0.00018  -0.00032
   D33       -0.00455   0.00000   0.00000   0.00021   0.00021  -0.00434
   D34        3.14141   0.00001   0.00000   0.00033   0.00033  -3.14145
   D35       -1.35536   0.00022   0.00000   0.01096   0.01096  -1.34440
   D36        0.72917   0.00026   0.00000   0.01143   0.01143   0.74059
   D37        2.86252   0.00024   0.00000   0.01120   0.01121   2.87373
   D38        3.12647  -0.00023   0.00000   0.00180   0.00180   3.12826
   D39       -1.07219  -0.00019   0.00000   0.00226   0.00226  -1.06993
   D40        1.06116  -0.00021   0.00000   0.00204   0.00204   1.06320
   D41        2.32047  -0.00007   0.00000  -0.02637  -0.02639   2.29408
   D42       -2.18255  -0.00004   0.00000  -0.02271  -0.02269  -2.20524
   D43       -3.12529   0.00021   0.00000  -0.00115  -0.00115  -3.12644
   D44       -1.05998   0.00019   0.00000  -0.00145  -0.00145  -1.06143
   D45        1.07335   0.00017   0.00000  -0.00171  -0.00170   1.07165
   D46        1.40057  -0.00020   0.00000  -0.01005  -0.01005   1.39052
   D47       -2.81731  -0.00022   0.00000  -0.01034  -0.01035  -2.82765
   D48       -0.68397  -0.00024   0.00000  -0.01060  -0.01061  -0.69458
   D49       -3.13413   0.00008   0.00000   0.01512   0.01512  -3.11901
   D50       -1.04597   0.00025   0.00000   0.01707   0.01707  -1.02890
   D51        1.06256  -0.00020   0.00000   0.01166   0.01166   1.07422
         Item               Value     Threshold  Converged?
 Maximum Force            0.001674     0.000450     NO 
 RMS     Force            0.000280     0.000300     YES
 Maximum Displacement     0.107646     0.001800     NO 
 RMS     Displacement     0.035861     0.001200     NO 
 Predicted change in Energy=-4.700855D-05
 GradGradGradGradGradGradGradGradGradGradGradGradGradGradGradGradGradGrad

                          Input orientation:                          
 ---------------------------------------------------------------------
 Center     Atomic      Atomic             Coordinates (Angstroms)
 Number     Number       Type             X           Y           Z
 ---------------------------------------------------------------------
      1          6           0       -0.894829    1.665060    0.857631
      2          6           0       -3.205302    1.695810   -0.796191
      3          6           0       -3.019978    2.633348    0.172031
      4          7           0       -1.914624    2.611443    0.956206
      5          1           0       -4.083518    1.704671   -1.427740
      6          1           0       -3.731865    3.429003    0.361416
      7          8           0        0.075832    1.673641    1.571626
      8          7           0       -1.107750    0.692825   -0.160885
      9          6           0       -2.207332    0.693300   -0.961998
     10          7           0       -2.334453   -0.250395   -1.896344
     11          1           0       -1.644156   -0.973829   -2.044003
     12          1           0       -3.147328   -0.260538   -2.498123
     13          1           0       -1.769141    3.307761    1.680436
     14         16           0        2.771665   -2.476394   -0.253110
     15          6           0        4.304443   -1.481173   -0.312390
     16          1           0        4.311614   -0.949562   -1.267361
     17          1           0        4.339710   -0.753560    0.503738
     18          1           0        5.184059   -2.129134   -0.266750
     19          6           0       -0.059801   -0.340692   -0.315136
     20          1           0        0.720978   -0.160065    0.417764
     21          1           0        0.378698   -0.282063   -1.314826
     22          1           0       -0.484288   -1.332267   -0.137379
     23          6           0        2.977036   -3.278502    1.377046
     24          1           0        2.112823   -3.929575    1.531681
     25          1           0        3.882697   -3.891063    1.391324
     26          1           0        3.018760   -2.539734    2.182769
 ---------------------------------------------------------------------
                    Distance matrix (angstroms):
                    1          2          3          4          5
     1  C    0.000000
     2  C    2.841542   0.000000
     3  C    2.433904   1.360432   0.000000
     4  N    1.394755   2.361171   1.355439   0.000000
     5  H    3.923293   1.081757   2.133735   3.348064   0.000000
     6  H    3.377351   2.149717   1.084305   2.079553   2.509594
     7  O    1.205008   4.046343   3.530431   2.284761   5.128095
     8  N    1.424062   2.410253   2.744646   2.362210   3.388798
     9  C    2.445001   1.424241   2.389603   2.728453   2.181711
    10  N    3.650461   2.399256   3.614429   4.062439   2.664790
    11  H    3.993083   3.334844   4.451451   4.682797   3.674865
    12  H    4.476914   2.593690   3.939608   4.658349   2.425740
    13  H    2.034673   3.285517   2.072368   1.015151   4.193685
    14  S    5.641681   7.309333   7.735201   7.022097   8.115085
    15  C    6.188712   8.168448   8.414932   7.552194   9.041654
    16  H    6.201523   7.982732   8.286213   7.509398   8.806187
    17  H    5.777141   8.038434   8.108401   7.116507   8.984669
    18  H    7.253483   9.235360   9.496314   8.623224  10.096234
    19  C    2.468946   3.777953   4.224322   3.711035   4.648839
    20  H    2.476973   4.509282   4.675285   3.862328   5.474149
    21  H    3.183195   4.126260   4.718195   4.334662   4.885820
    22  H    3.184738   4.123978   4.717156   4.335279   4.882876
    23  C    6.300789   8.227274   8.506833   7.667914   9.085718
    24  H    6.387508   8.083712   8.441934   7.703014   8.882429
    25  H    7.347114   9.286447   9.576092   8.722434  10.135085
    26  H    5.895122   8.096479   8.201841   7.237221   9.027353
                    6          7          8          9         10
     6  H    0.000000
     7  O    4.363996   0.000000
     8  N    3.826938   2.316130   0.000000
     9  C    3.399956   3.548684   1.360464   0.000000
    10  N    4.537424   4.640927   2.325141   1.334062   0.000000
    11  H    5.434106   4.800024   2.571303   2.065726   1.010777
    12  H    4.704398   5.540096   3.245221   2.037910   1.011438
    13  H    2.367868   2.467005   3.265852   3.742976   5.076751
    14  S    8.806092   5.274463   5.010221   5.944736   5.807558
    15  C    9.441721   5.602099   5.834471   6.895907   6.935320
    16  H    9.301737   5.734361   5.769855   6.729703   6.712277
    17  H    9.091997   5.021189   5.675259   6.863347   7.110415
    18  H   10.525264   6.628326   6.896485   7.942428   7.919169
    19  C    5.305882   2.763296   1.479915   2.469709   2.771717
    20  H    5.719475   2.260550   2.099166   3.347682   3.833916
    21  H    5.786063   3.499730   2.119319   2.786283   2.774951
    22  H    5.784915   3.502844   2.119022   2.784205   2.772637
    23  C    9.541042   5.742697   5.901029   6.937147   6.935159
    24  H    9.469877   5.962127   5.882470   6.800967   6.713120
    25  H   10.612523   6.744677   6.951686   7.977654   7.919354
    26  H    9.193155   5.175601   5.741971   6.903195   7.108946
                   11         12         13         14         15
    11  H    0.000000
    12  H    1.724684   0.000000
    13  H    5.676185   5.665024   0.000000
    14  S    4.996446   6.707054   7.603549   0.000000
    15  C    6.216246   7.861060   7.987093   1.828493   0.000000
    16  H    6.006243   7.591136   7.986857   2.394027   1.092992
    17  H    6.507392   8.081458   7.429468   2.449436   1.093951
    18  H    7.149676   8.825116   9.038714   2.437297   1.093463
    19  C    2.428997   3.782153   4.496149   3.547149   4.510801
    20  H    3.509468   4.845233   4.452060   3.165560   3.888403
    21  H    2.258800   3.719343   5.145060   3.415936   4.225425
    22  H    2.260307   3.716651   5.146373   3.453064   4.794242
    23  C    6.194393   7.850661   8.123860   1.828378   2.801178
    24  H    5.969660   7.574321   8.214061   2.394011   3.768086
    25  H    7.131467   8.816448   9.156960   2.437180   2.981289
    26  H    6.485402   8.070076   7.574268   2.449199   2.999892
                   16         17         18         19         20
    16  H    0.000000
    17  H    1.782133   0.000000
    18  H    1.775886   1.788514   0.000000
    19  C    4.515166   4.494074   5.540661   0.000000
    20  H    4.044209   3.668085   4.925940   1.085994   0.000000
    21  H    3.989441   4.383959   5.253725   1.093206   1.770285
    22  H    4.942065   4.900703   5.725547   1.093164   1.770567
    23  C    3.768017   2.999147   2.982292   4.551548   3.966696
    24  H    4.642177   4.012825   3.988538   4.583788   4.169803
    25  H    3.988108   3.292506   2.747207   5.573188   4.986445
    26  H    4.012919   2.784685   3.295035   4.533525   3.749383
                   21         22         23         24         25
    21  H    0.000000
    22  H    1.798349   0.000000
    23  C    4.793348   4.249951   0.000000
    24  H    4.941067   4.034446   1.093011   0.000000
    25  H    5.711930   5.287242   1.093461   1.775849   0.000000
    26  H    4.929521   4.371774   1.093942   1.782217   1.788537
                   26
    26  H    0.000000
 Symmetry turned off by external request.
 Stoichiometry    C7H14N3OS(1+)
 Framework group  C1[X(C7H14N3OS)]
 Deg. of freedom    72
 Full point group                 C1      NOp   1
 Rotational constants (GHZ):      1.4612221      0.2809950      0.2513581
 Standard basis: 6-31G(d) (6D, 7F)
   212 basis functions,   416 primitive gaussians,   212 cartesian basis functions
    50 alpha electrons       50 beta electrons
       nuclear repulsion energy       770.5572039969 Hartrees.
 NAtoms=   26 NActive=   26 NUniq=   26 SFac= 1.00D+00 NAtFMM=   60 NAOKFM=F Big=F
 Integral buffers will be    131072 words long.
 Raffenetti 2 integral format.
 Two-electron integral symmetry is turned off.
 One-electron integrals computed using PRISM.
 NBasis=   212 RedAO= T EigKep=  1.08D-03  NBF=   212
 NBsUse=   212 1.00D-06 EigRej= -1.00D+00 NBFU=   212
 Initial guess from the checkpoint file:  "/localscratch/enas93.52313747.0/Gau-30440.chk"
 B after Tr=    -0.011246    0.004790    0.008634
         Rot=    0.999999   -0.000898    0.001224   -0.000013 Ang=  -0.17 deg.
 ExpMin= 1.17D-01 ExpMax= 2.19D+04 ExpMxC= 3.30D+03 IAcc=1 IRadAn=         1 AccDes= 0.00D+00
 Harris functional with IExCor=  402 and IRadAn=       1 diagonalized for initial guess.
 HarFok:  IExCor=  402 AccDes= 0.00D+00 IRadAn=         1 IDoV= 1 UseB2=F ITyADJ=14
 ICtDFT=  3500011 ScaDFX=  1.000000  1.000000  1.000000  1.000000
 FoFCou: FMM=F IPFlag=           0 FMFlag=      100000 FMFlg1=           0
         NFxFlg=           0 DoJE=T BraDBF=F KetDBF=T FulRan=T
         wScrn=  0.000000 ICntrl=     500 IOpCl=  0 I1Cent=   200000004 NGrid=           0
         NMat0=    1 NMatS0=      1 NMatT0=    0 NMatD0=    1 NMtDS0=    0 NMtDT0=    0
 Symmetry not used in FoFCou.
 Keep R1 ints in memory in canonical form, NReq=259882001.
 Requested convergence on RMS density matrix=1.00D-08 within 128 cycles.
 Requested convergence on MAX density matrix=1.00D-06.
 Requested convergence on             energy=1.00D-06.
 No special actions if energy rises.
 Integral accuracy reduced to 1.0D-05 until final iterations.
 Initial convergence to 1.0D-05 achieved.  Increase integral accuracy.
 SCF Done:  E(RB3LYP) =  -912.649380586     A.U. after   12 cycles
            NFock= 12  Conv=0.31D-08     -V/T= 2.0069
 Calling FoFJK, ICntrl=      2127 FMM=F ISym2X=0 I1Cent= 0 IOpClX= 0 NMat=1 NMatS=1 NMatT=0.
 -------------------------------------------------------------------
 Center     Atomic                   Forces (Hartrees/Bohr)
 Number     Number              X              Y              Z
 -------------------------------------------------------------------
      1        6           0.000265119   -0.000162517    0.000085440
      2        6          -0.000006650   -0.000023365   -0.000032174
      3        6           0.000038911    0.000048092    0.000063732
      4        7          -0.000186727    0.000037954   -0.000092128
      5        1           0.000012992   -0.000030903   -0.000008763
      6        1           0.000004905    0.000009447    0.000002715
      7        8          -0.000074282   -0.000203413   -0.000234106
      8        7           0.000506488    0.000086056    0.000480978
      9        6           0.000007340   -0.000122274   -0.000190719
     10        7          -0.000063515   -0.000078052   -0.000096779
     11        1          -0.000093120    0.000013828   -0.000026819
     12        1          -0.000011625    0.000007820    0.000003713
     13        1           0.000024016   -0.000011675    0.000007882
     14       16          -0.000142937    0.000239913    0.000172796
     15        6           0.000164605   -0.000277178   -0.000068345
     16        1          -0.000001913    0.000006252   -0.000001775
     17        1          -0.000017189   -0.000016578    0.000004093
     18        1           0.000014365    0.000001497   -0.000020762
     19        6          -0.000026740   -0.000240801   -0.000369428
     20        1          -0.000729477    0.000999580    0.000390879
     21        1           0.000115230   -0.000008276   -0.000006782
     22        1           0.000009039   -0.000072783    0.000092200
     23        6           0.000205644   -0.000223878   -0.000100297
     24        1          -0.000007518    0.000029256   -0.000007174
     25        1           0.000006038   -0.000013760   -0.000022766
     26        1          -0.000012998    0.000005759   -0.000025611
 -------------------------------------------------------------------
 Cartesian Forces:  Max     0.000999580 RMS     0.000198305

 GradGradGradGradGradGradGradGradGradGradGradGradGradGradGradGradGradGrad
 Berny optimization.
 Using GEDIIS/GDIIS optimizer.
 FormGI is forming the generalized inverse of G from B-inverse, IUseBI=4.
 GSVD:  received Info=                   1 from GESDD.
 Internal  Forces:  Max     0.001491553 RMS     0.000200334
 Search for a local minimum.
 Step number   2 out of a maximum of  130
 All quantities printed in internal units (Hartrees-Bohrs-Radians)
 Mixed Optimization -- En-DIIS/RFO-DIIS
 Swapping is turned off.
 Update second derivatives using D2CorX and points    1    2
 DE= -6.09D-05 DEPred=-4.70D-05 R= 1.30D+00
 TightC=F SS=  1.41D+00  RLast= 7.19D-02 DXNew= 5.0454D-01 2.1584D-01
 Trust test= 1.30D+00 RLast= 7.19D-02 DXMaxT set to 3.00D-01
 ITU=  1  0
     Eigenvalues ---    0.00217   0.00230   0.00231   0.00282   0.00638
     Eigenvalues ---    0.00768   0.01368   0.01561   0.01713   0.01992
     Eigenvalues ---    0.02033   0.02142   0.02206   0.02327   0.02469
     Eigenvalues ---    0.02564   0.02564   0.03607   0.06377   0.06918
     Eigenvalues ---    0.06919   0.07303   0.07418   0.07430   0.08071
     Eigenvalues ---    0.10988   0.13734   0.15944   0.16000   0.16000
     Eigenvalues ---    0.16000   0.16000   0.16000   0.16000   0.16000
     Eigenvalues ---    0.16000   0.16000   0.16000   0.16681   0.18087
     Eigenvalues ---    0.22067   0.22770   0.23489   0.23989   0.23998
     Eigenvalues ---    0.24927   0.25000   0.25000   0.30635   0.34311
     Eigenvalues ---    0.34326   0.34380   0.34386   0.34444   0.34450
     Eigenvalues ---    0.34457   0.34459   0.35290   0.35479   0.35783
     Eigenvalues ---    0.37929   0.40370   0.42856   0.45120   0.45309
     Eigenvalues ---    0.45732   0.45876   0.49507   0.52389   0.53484
     Eigenvalues ---    0.58629   1.02363
 En-DIIS/RFO-DIIS IScMMF=        0 using points:     2    1
 RFO step:  Lambda=-1.40692699D-05.
 DidBck=F Rises=F RFO-DIIS coefs:    1.44445   -0.44445
 Iteration  1 RMS(Cart)=  0.04046548 RMS(Int)=  0.00030132
 Iteration  2 RMS(Cart)=  0.00062875 RMS(Int)=  0.00001859
 Iteration  3 RMS(Cart)=  0.00000010 RMS(Int)=  0.00001859
 Variable       Old X    -DE/DX   Delta X   Delta X   Delta X     New X
                                 (Linear)    (Quad)   (Total)
    R1        2.63570   0.00010   0.00021   0.00042   0.00062   2.63633
    R2        2.27714  -0.00020  -0.00003  -0.00030  -0.00033   2.27680
    R3        2.69109  -0.00040   0.00023  -0.00127  -0.00104   2.69005
    R4        2.57084   0.00010  -0.00010   0.00023   0.00013   2.57097
    R5        2.04422  -0.00001   0.00000  -0.00002  -0.00002   2.04420
    R6        2.69142   0.00000  -0.00005   0.00000  -0.00004   2.69138
    R7        2.56141  -0.00002   0.00002  -0.00005  -0.00003   2.56138
    R8        2.04904   0.00000   0.00000   0.00002   0.00002   2.04906
    R9        1.91836   0.00000  -0.00000   0.00000  -0.00000   1.91835
   R10        2.57091   0.00028   0.00006   0.00081   0.00087   2.57177
   R11        2.79663  -0.00060   0.00062  -0.00212  -0.00149   2.79514
   R12        2.52101   0.00014  -0.00001   0.00034   0.00033   2.52134
   R13        1.91009  -0.00007  -0.00000  -0.00022  -0.00022   1.90987
   R14        1.91134   0.00001  -0.00001   0.00002   0.00001   1.91135
   R15        3.45535  -0.00002  -0.00009  -0.00015  -0.00023   3.45512
   R16        5.98204   0.00033   0.02070   0.05349   0.07419   6.05623
   R17        3.45513  -0.00003  -0.00006  -0.00023  -0.00029   3.45484
   R18        2.06546   0.00001  -0.00008  -0.00003  -0.00011   2.06535
   R19        2.06727  -0.00001  -0.00026  -0.00020  -0.00046   2.06681
   R20        2.06634   0.00001  -0.00023  -0.00011  -0.00034   2.06601
   R21        2.05223  -0.00003   0.00021   0.00001   0.00022   2.05245
   R22        2.06586   0.00005  -0.00001   0.00021   0.00020   2.06607
   R23        2.06578   0.00008  -0.00000   0.00032   0.00032   2.06610
   R24        2.06549  -0.00001  -0.00007  -0.00010  -0.00017   2.06532
   R25        2.06634   0.00001  -0.00021  -0.00008  -0.00029   2.06605
   R26        2.06725  -0.00002  -0.00025  -0.00022  -0.00047   2.06678
    A1        2.14392   0.00030  -0.00029   0.00158   0.00129   2.14521
    A2        1.98720  -0.00003  -0.00005  -0.00029  -0.00034   1.98686
    A3        2.15206  -0.00027   0.00034  -0.00129  -0.00095   2.15112
    A4        2.11818   0.00002   0.00006   0.00022   0.00028   2.11846
    A5        2.06291   0.00003  -0.00011   0.00021   0.00010   2.06301
    A6        2.10210  -0.00005   0.00004  -0.00042  -0.00038   2.10172
    A7        2.10796   0.00001  -0.00013  -0.00001  -0.00013   2.10783
    A8        2.14190   0.00000   0.00004   0.00006   0.00010   2.14200
    A9        2.03333  -0.00001   0.00009  -0.00005   0.00004   2.03336
   A10        2.17285  -0.00001   0.00023   0.00001   0.00023   2.17309
   A11        1.99441  -0.00002  -0.00008  -0.00022  -0.00031   1.99410
   A12        2.11592   0.00003  -0.00014   0.00022   0.00007   2.11600
   A13        2.14333   0.00021  -0.00039   0.00091   0.00052   2.14385
   A14        2.03248  -0.00043   0.00203  -0.00120   0.00083   2.03331
   A15        2.10737   0.00023  -0.00163   0.00029  -0.00135   2.10602
   A16        2.09212  -0.00020   0.00045  -0.00083  -0.00038   2.09174
   A17        2.10911  -0.00017  -0.00013  -0.00111  -0.00123   2.10788
   A18        2.08195   0.00037  -0.00032   0.00193   0.00161   2.08356
   A19        2.14543   0.00009  -0.00002   0.00082   0.00080   2.14623
   A20        2.09483  -0.00006   0.00002  -0.00050  -0.00049   2.09435
   A21        2.04291  -0.00003   0.00000  -0.00031  -0.00031   2.04260
   A22        1.72303   0.00037   0.00305   0.01191   0.01489   1.73792
   A23        1.74520  -0.00021   0.00025   0.00028   0.00042   1.74563
   A24        1.77708   0.00036   0.00325   0.01193   0.01512   1.79220
   A25        1.87398   0.00000   0.00015   0.00009   0.00024   1.87421
   A26        1.94427  -0.00004   0.00009  -0.00026  -0.00017   1.94410
   A27        1.92885   0.00003  -0.00019   0.00014  -0.00005   1.92880
   A28        1.90510   0.00001   0.00005   0.00005   0.00009   1.90520
   A29        1.89590  -0.00001  -0.00008  -0.00013  -0.00021   1.89569
   A30        1.91459   0.00001  -0.00002   0.00012   0.00010   1.91469
   A31        1.89928  -0.00042   0.00528  -0.00123   0.00405   1.90333
   A32        1.91973   0.00017  -0.00123   0.00108  -0.00015   1.91957
   A33        1.91936   0.00013  -0.00084   0.00082  -0.00002   1.91933
   A34        1.89635   0.00005  -0.00125  -0.00100  -0.00226   1.89410
   A35        1.89685   0.00007  -0.00089  -0.00057  -0.00147   1.89538
   A36        1.93168  -0.00001  -0.00093   0.00082  -0.00012   1.93156
   A37        1.77319  -0.00149  -0.00217  -0.01000  -0.01217   1.76102
   A38        1.87407  -0.00002   0.00015  -0.00014   0.00001   1.87408
   A39        1.92883  -0.00001  -0.00020  -0.00020  -0.00041   1.92843
   A40        1.94411  -0.00003   0.00010  -0.00019  -0.00009   1.94401
   A41        1.89582   0.00002  -0.00009   0.00018   0.00009   1.89591
   A42        1.90522   0.00001   0.00008   0.00001   0.00009   1.90531
   A43        1.91465   0.00003  -0.00003   0.00034   0.00031   1.91496
    D1       -3.14115  -0.00000  -0.00003  -0.00026  -0.00029  -3.14144
    D2        0.00014  -0.00000  -0.00002  -0.00015  -0.00017  -0.00002
    D3        0.00040  -0.00000  -0.00000   0.00003   0.00003   0.00042
    D4       -3.14150   0.00000   0.00000   0.00015   0.00015  -3.14135
    D5        0.00082  -0.00001  -0.00006  -0.00059  -0.00066   0.00016
    D6       -3.14098  -0.00001  -0.00067  -0.00117  -0.00184   3.14036
    D7       -3.14082  -0.00000  -0.00004  -0.00030  -0.00034  -3.14116
    D8        0.00056  -0.00001  -0.00065  -0.00088  -0.00153  -0.00096
    D9       -3.14094  -0.00001   0.00002  -0.00068  -0.00066   3.14159
   D10        0.00038  -0.00001   0.00006  -0.00035  -0.00029   0.00009
   D11       -0.00007  -0.00000  -0.00006  -0.00031  -0.00037  -0.00044
   D12        3.14124   0.00000  -0.00001   0.00002   0.00001   3.14125
   D13        0.00123  -0.00000  -0.00001  -0.00023  -0.00024   0.00099
   D14       -3.13990  -0.00002   0.00022  -0.00106  -0.00084  -3.14074
   D15       -3.14108   0.00000  -0.00008   0.00013   0.00005  -3.14104
   D16        0.00098  -0.00001   0.00014  -0.00070  -0.00055   0.00042
   D17       -0.00076   0.00001   0.00006   0.00042   0.00048  -0.00028
   D18        3.14116   0.00000   0.00006   0.00029   0.00035   3.14150
   D19        3.14109   0.00000   0.00002   0.00011   0.00013   3.14122
   D20       -0.00018  -0.00000   0.00001  -0.00002  -0.00000  -0.00018
   D21       -0.00164   0.00001   0.00007   0.00071   0.00078  -0.00086
   D22        3.13950   0.00002  -0.00015   0.00152   0.00137   3.14087
   D23        3.14017   0.00001   0.00071   0.00131   0.00201  -3.14100
   D24       -0.00188   0.00003   0.00048   0.00212   0.00260   0.00073
   D25        0.00231  -0.00001  -0.00111  -0.00200  -0.00310  -0.00080
   D26       -2.07322   0.00009  -0.00205  -0.00067  -0.00272  -2.07593
   D27        2.07822  -0.00010   0.00049  -0.00295  -0.00246   2.07576
   D28       -3.13949  -0.00001  -0.00170  -0.00256  -0.00426   3.13943
   D29        1.06817   0.00009  -0.00265  -0.00123  -0.00388   1.06429
   D30       -1.06358  -0.00010  -0.00011  -0.00351  -0.00361  -1.06719
   D31        3.13679   0.00002  -0.00013   0.00122   0.00109   3.13788
   D32       -0.00032   0.00000  -0.00008   0.00027   0.00019  -0.00013
   D33       -0.00434   0.00001   0.00010   0.00040   0.00049  -0.00385
   D34       -3.14145  -0.00001   0.00015  -0.00055  -0.00040   3.14133
   D35       -1.34440   0.00022   0.00487   0.01574   0.02062  -1.32378
   D36        0.74059   0.00021   0.00508   0.01569   0.02078   0.76138
   D37        2.87373   0.00022   0.00498   0.01577   0.02076   2.89448
   D38        3.12826  -0.00019   0.00080   0.00073   0.00152   3.12978
   D39       -1.06993  -0.00020   0.00101   0.00069   0.00168  -1.06825
   D40        1.06320  -0.00019   0.00091   0.00076   0.00166   1.06486
   D41        2.29408   0.00002  -0.01173  -0.01348  -0.02531   2.26877
   D42       -2.20524  -0.00003  -0.01008  -0.00783  -0.01781  -2.22305
   D43       -3.12644   0.00019  -0.00051   0.00045  -0.00006  -3.12649
   D44       -1.06143   0.00020  -0.00064   0.00047  -0.00016  -1.06159
   D45        1.07165   0.00021  -0.00076   0.00063  -0.00011   1.07153
   D46        1.39052  -0.00022  -0.00447  -0.01470  -0.01918   1.37134
   D47       -2.82765  -0.00022  -0.00460  -0.01468  -0.01929  -2.84694
   D48       -0.69458  -0.00021  -0.00471  -0.01452  -0.01924  -0.71382
   D49       -3.11901   0.00001   0.00672   0.01477   0.02149  -3.09752
   D50       -1.02890  -0.00000   0.00759   0.01477   0.02235  -1.00655
   D51        1.07422   0.00006   0.00518   0.01483   0.02002   1.09424
         Item               Value     Threshold  Converged?
 Maximum Force            0.001492     0.000450     NO 
 RMS     Force            0.000200     0.000300     YES
 Maximum Displacement     0.136336     0.001800     NO 
 RMS     Displacement     0.040378     0.001200     NO 
 Predicted change in Energy=-4.066256D-05
 GradGradGradGradGradGradGradGradGradGradGradGradGradGradGradGradGradGrad

                          Input orientation:                          
 ---------------------------------------------------------------------
 Center     Atomic      Atomic             Coordinates (Angstroms)
 Number     Number       Type             X           Y           Z
 ---------------------------------------------------------------------
      1          6           0       -0.929457    1.681251    0.875934
      2          6           0       -3.207162    1.710087   -0.823305
      3          6           0       -3.037702    2.652808    0.142885
      4          7           0       -1.948169    2.631602    0.948888
      5          1           0       -4.072819    1.717625   -1.471959
      6          1           0       -3.750447    3.451910    0.313672
      7          8           0        0.027374    1.689718    1.608071
      8          7           0       -1.125540    0.704560   -0.140933
      9          6           0       -2.209582    0.703350   -0.963713
     10          7           0       -2.323555   -0.245440   -1.894836
     11          1           0       -1.634637   -0.973252   -2.025648
     12          1           0       -3.125462   -0.255369   -2.511169
     13          1           0       -1.814547    3.331470    1.671979
     14         16           0        2.775552   -2.481551   -0.240314
     15          6           0        4.314038   -1.497726   -0.330247
     16          1           0        4.297780   -0.951978   -1.277033
     17          1           0        4.379224   -0.782954    0.495010
     18          1           0        5.189024   -2.153140   -0.320209
     19          6           0       -0.078329   -0.331855   -0.271313
     20          1           0        0.693494   -0.151399    0.471224
     21          1           0        0.376285   -0.280826   -1.264319
     22          1           0       -0.508186   -1.321386   -0.094035
     23          6           0        3.020131   -3.307595    1.372209
     24          1           0        2.155232   -3.953687    1.542486
[...]
 0960,-0.00615270,-0.15153742,0.02614387,-0.04273560,-0.00614863,-0.010
 61071,-0.01687530,-0.00147497,0.00398525,0.00536030,0.00244109,0.00051
 466,0.00187626,-0.00070808,0.00036399,-0.00038995,0.00003393,0.0000557
 4,-0.00015547,-0.00125041,0.00054326,0.00050977,-0.00011045,0.00008323
 ,0.00001699,-0.00006639,0.00001413,0.00010508,0.00000274,-0.00002788,0
 .00000571,0.00005658,-0.00006908,-0.00005125,0.49166136,0.02176382,-0.
 00511420,0.01512413,0.00020882,-0.00089512,-0.00561784,0.00053700,-0.0
 0200069,-0.00088174,0.00358542,-0.00030608,-0.00246802,-0.00083202,0.0
 0077593,-0.00067039,-0.00023817,-0.00015594,0.00031789,0.00213757,-0.0
 0066140,0.00106092,0.02903344,-0.09393971,-0.00391053,-0.01655894,0.00
 663635,-0.00688349,-0.00368751,-0.00180491,-0.00219016,-0.00042760,0.0
 0004534,-0.00138879,-0.00016934,0.00022621,-0.00012469,0.00079831,0.00
 013822,0.00051534,0.00008739,-0.00138013,-0.00018955,0.00013338,0.0001
 0310,0.00006364,-0.00003317,0.00000267,0.00000184,-0.00000122,0.000013
 08,0.00000992,-0.00007935,0.00002192,0.00006606,0.01210985,0.62003600,
 0.00259773,0.01341688,0.01483911,-0.00032624,-0.00390819,-0.00015989,0
 .00012288,-0.00072424,-0.00146388,0.00266472,-0.00489270,0.00167270,-0
 .00093425,0.00016213,0.00011402,0.00014649,0.00033338,-0.00014049,-0.0
 0044908,-0.00335144,-0.00402272,-0.03947750,-0.00639842,-0.10830294,-0
 .02342862,-0.00183588,-0.02184843,-0.00299769,0.00433588,-0.00050114,0
 .00084526,-0.00051371,0.00107902,-0.00096423,0.00032236,-0.00025299,0.
 00065131,-0.00011574,0.00072045,-0.00007594,0.00021147,-0.00100618,0.0
 0013763,-0.00048319,0.00041814,0.00002758,0.00002267,-0.00001767,0.000
 13139,0.00000584,-0.00023776,0.00008881,-0.00002730,-0.00008958,-0.075
 29778,0.03717467,0.57223730,-0.00280500,-0.00305671,-0.00724992,-0.000
 28518,-0.00055878,-0.00118967,0.00026954,-0.00103499,-0.00091964,0.001
 97125,0.00047913,0.00204835,-0.00041325,0.00018664,-0.00019140,0.00001
 298,0.00007505,0.00010412,-0.00041742,0.00227569,0.00347871,-0.0062407
 3,-0.02142300,-0.02679167,-0.00536873,0.00329517,-0.00068673,-0.000031
 11,0.00066546,0.00035437,-0.00011966,-0.00054359,0.00000984,0.00018635
 ,-0.00006909,-0.00003302,-0.00004535,0.00004695,-0.00004950,0.00016025
 ,0.00013799,0.00004589,-0.00003653,0.00005434,-0.00006796,0.00002577,-
 0.00000312,0.00000604,-0.00002342,0.00001323,0.00003982,-0.00000185,-0
 .00000200,0.00000355,-0.04907284,-0.00284127,-0.00076024,0.05845362,0.
 00324262,0.00178160,0.00271233,0.00043251,0.00029574,0.00027935,-0.000
 20202,0.00064698,0.00050886,-0.00130670,-0.00038134,-0.00173247,0.0002
 0550,-0.00003985,0.00007984,-0.00001574,-0.00005881,-0.00006631,0.0023
 0979,-0.00415595,-0.00074210,-0.00129215,0.00609481,0.00776543,0.00193
 125,-0.00139071,0.00047794,0.00027923,0.00002762,-0.00017040,-0.000333
 29,-0.00026078,0.00032419,0.00002639,0.00010273,-0.00001506,0.00007936
 ,0.00006662,0.00006119,0.00005219,0.00002912,-0.00024848,0.00009681,-0
 .00008316,0.00010216,0.00000568,0.00000195,-0.00000984,0.00002612,0.00
 000250,-0.00005412,-0.00000578,0.00000326,0.00000555,-0.01234908,-0.17
 777154,-0.14724140,0.00627670,0.18619291,-0.00040446,-0.00260980,-0.00
 134698,-0.00009510,-0.00057491,-0.00032649,-0.00000989,-0.00019187,-0.
 00019587,0.00008087,-0.00021368,0.00001675,-0.00016814,0.00006329,-0.0
 0002822,0.00000375,0.00001196,0.00000390,0.00360555,-0.00077207,0.0004
 9160,-0.00498472,-0.00930563,-0.01643038,-0.00218874,0.00161845,-0.000
 39228,-0.00007467,0.00015447,0.00050907,0.00022675,0.00014856,-0.00046
 632,0.00006906,-0.00009562,0.00009198,-0.00001135,0.00003246,0.0000976
 7,-0.00004697,-0.00016242,0.00008457,-0.00002244,0.00007812,-0.0000652
 5,-0.00000083,-0.00000446,-0.00000445,-0.00002367,0.00000216,0.0000372
 5,-0.00001183,0.00000373,0.00001730,-0.01106886,-0.13922250,-0.2123382
 3,0.01475658,0.15412306,0.22904634,-0.00160000,-0.00455944,-0.00251666
 ,0.00023521,0.00026163,-0.00057823,0.00008169,0.00018075,0.00048842,-0
 .00042170,0.00109444,-0.00038528,0.00001760,0.00003188,-0.00007541,-0.
 00005275,-0.00008480,0.00004628,0.00059737,0.00034158,0.00109073,-0.03
 124734,0.00232366,0.00732382,-0.00091799,0.00326494,0.00372164,0.00132
 497,-0.00124545,-0.00043678,-0.00038196,-0.00139063,-0.00042245,0.0003
 0024,-0.00002618,0.00001807,-0.00014084,0.00000545,-0.00021822,0.00006
 232,0.00063937,0.00022863,-0.00005126,0.00011336,-0.00009078,-0.000005
 16,0.00000518,0.00004937,-0.00003352,-0.00000211,0.00005469,-0.0000115
 7,-0.00001375,0.00001075,-0.21121666,-0.02731521,0.12987961,0.00400542
 ,0.00125307,-0.00116286,0.23853854,0.00121138,0.00058302,-0.00000540,0
 .00019593,-0.00012688,0.00009780,-0.00012985,0.00005033,-0.00010933,0.
 00046612,-0.00060115,-0.00011972,-0.00002544,-0.00000622,0.00000794,0.
 00000431,-0.00001332,0.00001825,0.00034384,-0.00083277,0.00067793,0.00
 844020,-0.00046031,-0.00539762,-0.00146470,0.00098537,-0.00006563,0.00
 051139,0.00000462,0.00050741,-0.00121420,-0.00120051,-0.00075059,0.000
 19566,-0.00003991,-0.00005580,0.00008776,0.00003306,0.00010888,0.00050
 047,-0.00030667,-0.00017629,0.00006824,0.00027914,-0.00020349,0.000036
 49,-0.00001515,-0.00001635,-0.00008186,0.00001288,0.00011771,-0.000062
 54,0.00000866,0.00008823,-0.02788050,-0.05406275,0.02150888,0.01798157
 ,0.00520540,-0.01196407,0.02537492,0.05233156,-0.00212292,-0.00226474,
 -0.00310366,0.00036279,0.00073941,-0.00022032,-0.00023705,-0.00004076,
 -0.00007963,0.00045657,0.00106755,-0.00018013,0.00004050,0.00000534,-0
 .00004727,-0.00004977,-0.00009760,0.00009236,0.00120494,-0.00034747,0.
 00182184,-0.02351414,-0.00164817,0.01241615,-0.00190498,0.00072646,0.0
 0206323,0.00147873,-0.00064204,-0.00000308,-0.00076739,-0.00099196,0.0
 0005023,0.00005705,0.00024180,-0.00024940,-0.00014105,0.00004062,-0.00
 011266,0.00003213,-0.00029711,0.00014920,-0.00008053,-0.00011962,-0.00
 000081,0.00004662,0.00000595,0.00000731,0.00001513,0.00002091,-0.00001
 660,0.00004212,-0.00001162,-0.00004451,0.13682864,0.02124278,-0.157164
 01,0.01829481,0.00633193,-0.01218548,-0.13799701,-0.02310417,0.1633823
 5,-0.00064108,-0.00124398,-0.00560291,-0.00058832,-0.00038478,0.000453
 03,0.00012662,0.00021542,0.00009947,-0.00124939,0.00026608,0.00095516,
 -0.00003277,-0.00008031,0.00002452,0.00006800,0.00007020,-0.00008157,0
 .00076565,0.00047300,0.00120831,-0.00956465,0.03305127,-0.01570301,0.0
 0059945,0.00298277,0.00175302,0.00088541,-0.00133307,-0.00018682,0.000
 60332,0.00000310,-0.00025553,-0.00012799,-0.00008522,0.00011937,-0.000
 25052,-0.00004957,-0.00019456,-0.00013506,0.00049883,0.00012092,-0.000
 18056,-0.00037327,0.00010827,0.00001489,0.00001240,-0.00001261,0.00006
 624,0.00000101,-0.00010356,0.00011885,-0.00000292,-0.00011899,-0.04885
 812,-0.01860900,0.00728706,-0.00006353,-0.00070608,0.00149174,0.001167
 39,-0.02417889,0.00792518,0.05717746,-0.00143655,-0.00005436,0.0005870
 9,-0.00002199,0.00013050,0.00043640,-0.00026802,-0.00015576,-0.0003734
 0,0.00041206,-0.00038419,0.00042613,0.00002774,-0.00000250,0.00000027,
 0.00003698,0.00002995,-0.00000407,0.00115637,0.00011198,0.00010337,0.0
 0586792,-0.00023329,0.00130196,-0.00021753,-0.00018062,-0.00197444,0.0
 0019236,0.00011306,0.00056275,-0.00009279,0.00044028,-0.00028985,-0.00
 029896,-0.00005093,0.00001620,0.00002295,0.00006217,0.00005015,0.00039
 713,-0.00015717,-0.00049011,0.00002601,-0.00016544,0.00001167,-0.00001
 054,0.00000265,0.00001927,0.00002246,-0.00000010,-0.00003304,0.0000227
 9,-0.00000650,-0.00002651,-0.01301158,-0.28958541,0.09187140,-0.002032
 22,-0.01632216,0.00890852,-0.00033136,-0.00209022,-0.00072885,0.009490
 91,0.30860059,0.00011986,-0.00191533,-0.00334701,-0.00018443,-0.000458
 58,0.00034146,-0.00003857,0.00023457,0.00008094,-0.00043063,-0.0003372
 0,0.00041111,-0.00003998,-0.00003939,-0.00000260,0.00007649,0.00006339
 ,-0.00007080,0.00180712,0.00058249,0.00070507,-0.00767885,0.01539948,-
 0.00969911,-0.00133727,0.00401408,0.00173994,0.00142755,-0.00105807,0.
 00032285,0.00019895,-0.00016969,-0.00257438,0.00008825,-0.00029039,0.0
 0018786,-0.00010242,-0.00001543,-0.00003077,0.00017179,-0.00024711,0.0
 0036896,-0.00015307,0.00038729,-0.00035571,0.00000679,-0.00001549,0.00
 000183,-0.00011540,0.00000286,0.00019580,-0.00004355,0.00000714,0.0000
 6373,0.00575396,0.08801730,-0.08359563,-0.00121289,-0.02249937,0.01334
 638,0.00102216,0.01859951,-0.00636463,0.00083222,-0.10034689,0.0881454
 9,0.00015917,-0.00047027,-0.00035748,-0.00049993,0.00049996,0.00005832
 ,0.00002804,-0.00032175,-0.00036354,-0.00001412,0.00024999,0.00026407,
 0.00001368,0.00000690,0.00002010,-0.00000247,0.00001494,0.00002231,-0.
 00005682,0.00023092,0.00021481,-0.00024035,0.00039626,0.00032618,0.000
 58444,-0.00106243,-0.00064862,-0.00312839,0.00069912,-0.00012708,0.005
 04627,0.00057391,0.00059319,-0.00022507,0.00027440,-0.00004589,0.00004
 891,-0.00005286,-0.00002741,-0.04357057,0.00927479,0.00670579,-0.00139
 362,-0.01995871,0.00535907,-0.00353044,0.00066196,0.00379906,0.0010235
 5,-0.00148587,-0.00112878,0.00105749,0.00114081,-0.00121668,0.00026931
 ,0.00052409,0.00012879,-0.00019730,0.00000782,0.00004193,-0.00027596,-
 0.00046884,0.00003140,0.00009339,0.00006001,-0.00024687,0.56270804,0.0
 0015302,-0.00023913,-0.00017758,-0.00027966,0.00020815,0.00003888,0.00
 002150,-0.00016814,-0.00016745,-0.00004465,0.00012540,0.00011541,0.000
 01197,0.00001781,-0.00000184,0.00000551,0.00001218,0.00000623,-0.00005
 961,0.00010577,0.00009662,-0.00016150,0.00019350,0.00012053,0.00037705
 ,-0.00042937,-0.00029233,-0.00088655,0.00066741,0.00015201,0.00097351,
 -0.00094027,0.00013183,0.00009058,0.00013042,-0.00000757,0.00003214,-0
 .00002594,-0.00001924,-0.01355231,-0.13845522,0.01842088,0.00001848,0.
 00008229,-0.00045578,0.00105691,-0.00001631,-0.00135364,0.00031691,0.0
 0116883,-0.00132105,0.00141923,0.00143057,-0.00081298,0.00010124,0.000
 01275,0.00009640,-0.00001524,0.00000201,-0.00001981,0.00003842,-0.0001
 2971,-0.00001211,0.00008699,0.00000554,-0.00009951,-0.03103601,0.36865
 737,-0.00011408,0.00014025,0.00005905,0.00003696,0.00003681,0.00003670
 ,-0.00000951,0.00000696,-0.00000850,0.00008546,-0.00004345,0.00002440,
 0.00000567,-0.00000168,0.00000734,-0.00000462,0.00000026,0.00000296,0.
 00008075,-0.00004831,-0.00001178,0.00030445,-0.00004080,0.00002157,-0.
 00011314,-0.00030330,-0.00023649,-0.00070244,0.00010414,0.00000883,0.0
 0075350,0.00043789,-0.00022033,-0.00006284,0.00012057,-0.00006264,-0.0
 0000880,0.00000802,0.00001497,0.00707085,-0.01088252,-0.04320172,0.005
 55215,0.02505760,-0.00430211,0.00385197,-0.00089400,-0.00512560,-0.001
 21200,-0.00086188,0.00159469,-0.00150109,0.00135169,0.00171643,-0.0002
 5270,-0.00015988,0.00010273,0.00001381,0.00002634,0.00001979,-0.000064
 88,0.00031642,-0.00025138,-0.00015467,-0.00008471,0.00012735,-0.000828
 23,0.04816019,0.56028484,0.00000088,0.00007126,0.00007123,0.00006120,-
 0.00006013,-0.00000218,-0.00001120,0.00006283,0.00005769,-0.00002073,-
 0.00003829,-0.00005609,-0.00000196,0.00000383,-0.00000615,-0.00000123,
 0.00000034,-0.00000261,-0.00000858,-0.00003706,-0.00004836,0.00000631,
 -0.00006783,-0.00007390,-0.00011516,0.00019384,0.00007335,0.00010710,-
 0.00018854,0.00002108,-0.00006681,0.00008581,-0.00007470,0.00001218,0.
 00002932,-0.00003174,-0.00000714,0.00001004,0.00000269,-0.00140547,-0.
 00046620,0.00053520,-0.00015745,-0.00061558,-0.00027640,0.00028672,0.0
 0014172,0.00018121,0.00037473,0.00011554,-0.00022054,0.00000616,0.0000
 3472,0.00001820,0.00001716,-0.00002453,-0.00000709,0.00001332,-0.00001
 516,0.00000880,0.00000099,0.00001456,0.00000615,0.00002025,0.00000748,
 0.00003944,-0.15992107,-0.01163680,0.13632473,0.16728400,0.00005896,-0
 .00008511,-0.00002335,-0.00003440,0.00002064,-0.00001754,0.00000979,-0
 .00002444,-0.00001504,-0.00003055,0.00002848,0.00000090,-0.00000459,-0
 .00000166,0.00000324,0.00000121,-0.00000131,0.00000187,-0.00002335,0.0
 0003799,0.00000309,-0.00005985,0.00005869,-0.00005983,0.00006338,-0.00
 002848,0.00012588,0.00014961,0.00001527,-0.00009972,-0.00018302,0.0000
 6917,0.00010718,-0.00003768,-0.00002338,0.00005003,0.00000444,-0.00001
 216,-0.00000173,-0.01715224,-0.00257822,0.02113500,-0.00028466,-0.0083
 8728,0.00046975,-0.00171111,0.00065741,0.00208404,0.00009676,-0.000055
 72,-0.00045184,0.00046520,-0.00003609,-0.00018162,0.00004598,-0.000113
 29,0.00009454,-0.00000015,0.00000216,-0.00001848,-0.00002477,0.0000143
 4,0.00000274,0.00004175,-0.00005433,-0.00000830,-0.01304487,-0.0452357
 4,0.01530508,0.01310702,0.05133859,0.00000653,0.00006358,0.00005992,0.
 00004764,-0.00004915,0.00000512,-0.00001242,0.00005887,0.00004989,-0.0
 0002251,-0.00003490,-0.00005046,0.00000138,0.00000767,-0.00000960,-0.0
 0000101,0.00000193,-0.00000266,-0.00001250,-0.00003354,-0.00004113,-0.
 00000590,-0.00006619,-0.00005900,-0.00011511,0.00020116,0.00004181,-0.
 00006993,-0.00019969,0.00004691,0.00016255,0.00009325,-0.00006650,0.00
 004052,0.00006965,-0.00007957,-0.00000477,0.00001051,0.00000029,0.0011
 1382,0.00115493,-0.00240977,-0.00029430,0.00099868,-0.00013144,0.00023
 794,-0.00019533,0.00013665,-0.00004841,-0.00004416,0.00006013,-0.00014
 442,-0.00010055,0.00041434,0.00002035,0.00003598,-0.00001635,0.0000030
 1,-0.00001444,0.00001142,0.00000464,-0.00001868,0.00000819,0.00002330,
 0.00002271,0.00002859,0.13674556,0.01317068,-0.21528599,-0.14813519,-0
 .01611006,0.22685858,-0.00000252,0.00008178,0.00007172,0.00009625,-0.0
 0008655,-0.00000337,-0.00001359,0.00008597,0.00007911,-0.00002178,-0.0
 0005352,-0.00007210,-0.00000320,0.00000804,-0.00000995,-0.00000107,-0.
 00000076,-0.00000373,-0.00000849,-0.00004373,-0.00005001,0.00001014,-0
 .00009833,-0.00010262,-0.00016074,0.00026360,0.00013661,0.00020374,-0.
 00038582,-0.00004649,-0.00011873,0.00026497,0.00007694,-0.00002268,0.0
 0013471,-0.00006796,-0.00000960,0.00001322,0.00000169,0.00107675,-0.00
 283267,0.00096181,-0.00040871,-0.00006095,-0.00115907,0.00005315,0.000
 22395,0.00016237,-0.00023484,-0.00001303,-0.00004096,-0.00002498,-0.00
 014725,0.00034057,0.00003098,-0.00002460,0.00001746,0.00000376,-0.0000
 0042,0.00000087,0.00000277,0.00001404,-0.00000290,-0.00000241,-0.00000
 172,0.00002041,-0.09322528,-0.04571099,-0.08710908,0.00959177,0.010982
 73,0.01672992,0.09204044,-0.00009376,0.00005791,0.00000190,0.00000345,
 0.00001329,-0.00000133,0.00000796,-0.00003636,-0.00003043,0.00007326,-
 0.00000211,0.00005466,0.00000667,-0.00001290,0.00000789,-0.00000037,-0
 .00000299,0.00000035,0.00006104,-0.00001084,0.00002136,0.00015260,0.00
 003700,0.00009737,0.00009679,-0.00026033,-0.00012837,0.00007963,0.0001
 3112,0.00004624,-0.00041655,0.00015936,-0.00021706,0.00007188,-0.00020
 786,0.00003691,-0.00000286,0.00000073,0.00000883,-0.00893993,-0.024684
 65,-0.01531623,0.00159751,0.00239097,-0.00108835,0.00049400,0.00016122
 ,-0.00022653,-0.00022333,-0.00012938,0.00026898,-0.00074497,0.00022126
 ,0.00120585,-0.00019144,-0.00003417,-0.00000450,0.00001032,0.00001554,
 0.00001300,-0.00002178,0.00015473,-0.00009426,-0.00008404,-0.00003211,
 0.00006494,-0.04967455,-0.09968686,-0.10580002,0.00231954,0.00230719,0
 .00271393,0.05113706,0.11112153,-0.00001556,-0.00000440,-0.00001194,0.
 00001619,-0.00000812,-0.00000922,0.00000183,-0.00000017,0.00000229,0.0
 0000867,0.00000036,0.00000349,-0.00000369,-0.00000485,0.00000368,-0.00
 000025,-0.00000242,0.00000011,0.00000513,0.00000178,0.00000860,-0.0000
 0929,-0.00000374,0.00001608,0.00000283,0.00000492,0.00001769,0.0001503
 8,-0.00004494,-0.00003435,-0.00013312,0.00003685,0.00005478,-0.0000425
 0,-0.00002429,0.00004845,-0.00000175,-0.00000044,0.00000020,0.00494395
 ,0.00842427,0.00674627,-0.00009233,0.00011724,0.00222207,-0.00015585,-
 0.00001832,0.00016962,-0.00000365,0.00001335,-0.00025305,-0.00070745,-
 0.00085799,-0.00025779,0.00000499,0.00003183,-0.00002881,-0.00000271,0
 .00000148,-0.00000068,0.00001886,-0.00003372,0.00002373,-0.00000369,0.
 00001237,-0.00001676,-0.08479235,-0.10098480,-0.22626081,-0.01105462,-
 0.01086691,-0.01764400,0.09324571,0.10729223,0.24035987,-0.00001132,0.
 00000900,0.00000678,0.00002618,-0.00003299,-0.00001458,0.00000792,0.00
 000082,0.00001219,0.00000784,-0.00000537,-0.00000163,-0.00000108,-0.00
 000527,0.00000235,0.00000185,-0.00000306,-0.00000136,0.00000791,-0.000
 00359,-0.00000219,0.00001682,0.,-0.00001143,0.00001724,0.00001768,0.00
 007908,0.00046855,-0.00001600,0.00000333,-0.00071461,-0.00008290,-0.00
 003025,0.00001960,-0.00008491,0.00004605,-0.00000108,-0.00000102,0.000
 00202,0.00766134,-0.00636179,0.00352193,0.00170595,-0.00009983,-0.0004
 1465,0.00013285,-0.00001494,-0.00014803,-0.00021928,0.00074792,-0.0006
 8836,-0.00024417,-0.00001883,-0.00001302,-0.00003170,-0.00007718,-0.00
 000808,0.00001963,0.00000139,-0.00001136,0.00002221,0.00005993,-0.0000
 0503,-0.00001252,-0.00001993,0.00001894,-0.26475090,0.09867984,-0.0619
 4222,-0.01606597,0.00756437,-0.00627068,-0.00885112,0.00428188,-0.0013
 7972,0.28078787,-0.00009965,0.00024043,0.00018746,0.00025049,-0.000228
 45,-0.00003633,-0.00001277,0.00015568,0.00017281,0.00001757,-0.0001213
 9,-0.00012388,-0.00000873,-0.00000897,-0.00000378,-0.00000078,-0.00000
 892,-0.00000915,0.00003755,-0.00011507,-0.00010829,0.00014268,-0.00019
 032,-0.00014399,-0.00027843,0.00045310,0.00029592,0.00131564,-0.000402
 79,0.00001567,-0.00208377,0.00008059,-0.00032637,0.00006144,-0.0001722
 0,0.00004936,-0.00002572,0.00002552,0.00001627,0.01968063,-0.02415406,
 0.00744280,0.00054897,0.00219076,-0.00138730,0.00009892,0.00015279,-0.
 00052440,-0.00098649,0.00039386,0.00076624,-0.00023809,-0.00013042,0.0
 0026012,-0.00015323,-0.00018623,-0.00005980,0.00008189,-0.00000667,-0.
 00000249,0.00008685,0.00022245,-0.00002500,-0.00006259,-0.00002162,0.0
 0012769,0.10296027,-0.08749328,0.02804835,-0.00304773,0.00208730,-0.00
 173686,-0.01374971,0.00832872,-0.00308156,-0.10453520,0.09890919,0.000
 00611,-0.00000891,-0.00000055,-0.00002181,0.00002147,-0.00000105,0.000
 00040,-0.00001148,-0.00001270,-0.00000326,0.00001032,0.00000693,0.0000
 0085,-0.00000170,0.00000158,-0.00000064,0.00000044,0.00000131,-0.00000
 437,0.00000556,0.00000031,-0.00001388,0.00001143,0.00001513,0.00003009
 ,-0.00003751,-0.00003788,-0.00014003,0.00002756,-0.00002414,0.00022970
 ,0.00002311,0.00004995,-0.00000681,-0.00001809,0.00000293,0.00000165,-
 0.00000211,0.00000017,-0.00136191,0.00542188,-0.00015129,-0.00146378,-
 0.00016233,-0.00010773,0.00015845,-0.00021764,0.00008900,0.00039731,-0
 .00006107,0.00010503,-0.00000749,0.00001969,-0.00025240,0.00000058,0.0
 0004529,0.00000324,-0.00000355,-0.00000565,0.00000663,-0.00000910,-0.0
 0002809,0.00000896,0.00001633,0.00002160,-0.00000998,-0.06452765,0.025
 21602,-0.06905429,0.02264981,-0.01152893,0.00807460,-0.02317694,0.0110
 7261,-0.00515951,0.06724993,-0.02981345,0.06644577\\0.00001261,-0.0000
 0390,-0.00000354,0.00000110,-0.00000235,0.00000128,0.00000109,0.000005
 55,0.00000304,-0.00000661,-0.00000274,-0.00000278,-0.00000026,0.000000
 22,0.00000056,0.00000003,0.00000064,0.00000064,0.00000137,0.00000074,0
 .00000218,-0.00000503,0.00000303,0.00000751,-0.00000212,0.00000282,-0.
 00000505,0.00000364,-0.00000028,0.00000180,-0.00000662,0.00000130,-0.0
 0000347,0.00000013,-0.00000018,-0.00000021,0.00000171,0.00000102,0.000
 00179,-0.00000080,0.00000241,0.00000249,0.00000143,-0.00000323,-0.0000
 0247,-0.00000002,-0.00000103,-0.00000119,-0.00000115,-0.00000085,-0.00
 000045,-0.00000127,-0.00000003,-0.00000014,-0.00000059,-0.00000298,0.0
 0000139,0.00000237,0.00000163,0.00000249,0.00000061,0.00000151,-0.0000
 0049,-0.00000038,0.00000026,-0.00000094,0.00000089,-0.00000211,-0.0000
 0162,-0.00000039,-0.00000144,-0.00000094,-0.00000081,0.00000032,-0.000
 00069,-0.00000092,-0.00000032,-0.00000118\\\@


 DON'T WORRY CHARLIE BROWN...WE LEARN MORE FROM LOSING  THAN WE DO FROM WINNING.
 THEN THAT MAKES ME THE SMARTEST PERSON IN THE WORLD...
 CHARLES SCHULZ 'PEANUTS'
 Job cpu time:       0 days  0 hours 15 minutes 12.4 seconds.
 File lengths (MBytes):  RWF=    151 Int=      0 D2E=      0 Chk=      5 Scr=      1
 Normal termination of Gaussian 09 at Thu Oct  8 00:26:44 2020.
