 Entering Gaussian System, Link 0=g09
 Initial command:
 /opt/software/gaussian/g09.e01/l1.exe "/localscratch/enas93.52313769.0/Gau-6866.inp" -scrdir="/localscratch/enas93.52313769.0/"
 Entering Link 1 = /opt/software/gaussian/g09.e01/l1.exe PID=      6867.
  
 Copyright (c) 1988,1990,1992,1993,1995,1998,2003,2009,2015,
            Gaussian, Inc.  All Rights Reserved.
  
 This is part of the Gaussian(R) 09 program.  It is based on
 the Gaussian(R) 03 system (copyright 2003, Gaussian, Inc.),
 the Gaussian(R) 98 system (copyright 1998, Gaussian, Inc.),
 the Gaussian(R) 94 system (copyright 1995, Gaussian, Inc.),
 the Gaussian 92(TM) system (copyright 1992, Gaussian, Inc.),
 the Gaussian 90(TM) system (copyright 1990, Gaussian, Inc.),
 the Gaussian 88(TM) system (copyright 1988, Gaussian, Inc.),
 the Gaussian 86(TM) system (copyright 1986, Carnegie Mellon
 University), and the Gaussian 82(TM) system (copyright 1983,
 Carnegie Mellon University). Gaussian is a federally registered
 trademark of Gaussian, Inc.
  
 This software contains proprietary and confidential information,
 including trade secrets, belonging to Gaussian, Inc.
  
 This software is provided under written license and may be
 used, copied, transmitted, or stored only in accord with that
 written license.
  
 The following legend is applicable only to US Government
 contracts under FAR:
  
                    RESTRICTED RIGHTS LEGEND
  
 Use, reproduction and disclosure by the US Government is
 subject to restrictions as set forth in subparagraphs (a)
 and (c) of the Commercial Computer Software - Restricted
 Rights clause in FAR 52.227-19.
  
 Gaussian, Inc.
 340 Quinnipiac St., Bldg. 40, Wallingford CT 06492
  
  
 ---------------------------------------------------------------
 Warning -- This program may not be used in any manner that
 competes with the business of Gaussian, Inc. or will provide
 assistance to any competitor of Gaussian, Inc.  The licensee
 of this program is prohibited from giving any competitor of
 Gaussian, Inc. access to this program.  By using this program,
 the user acknowledges that Gaussian, Inc. is engaged in the
 business of creating and licensing software in the field of
 computational chemistry and represents and warrants to the
 licensee that it is not a competitor of Gaussian, Inc. and that
 it will not use this program in any manner prohibited above.
 ---------------------------------------------------------------
  

 Cite this work as:
 Gaussian 09, Revision E.01,
 M. J. Frisch, G. W. Trucks, H. B. Schlegel, G. E. Scuseria, 
 M. A. Robb, J. R. Cheeseman, G. Scalmani, V. Barone, B. Mennucci, 
 G. A. Petersson, H. Nakatsuji, M. Caricato, X. Li, H. P. Hratchian, 
 A. F. Izmaylov, J. Bloino, G. Zheng, J. L. Sonnenberg, M. Hada, 
 M. Ehara, K. Toyota, R. Fukuda, J. Hasegawa, M. Ishida, T. Nakajima, 
 Y. Honda, O. Kitao, H. Nakai, T. Vreven, J. A. Montgomery, Jr., 
 J. E. Peralta, F. Ogliaro, M. Bearpark, J. J. Heyd, E. Brothers, 
 K. N. Kudin, V. N. Staroverov, T. Keith, R. Kobayashi, J. Normand, 
 K. Raghavachari, A. Rendell, J. C. Burant, S. S. Iyengar, J. Tomasi, 
 M. Cossi, N. Rega, J. M. Millam, M. Klene, J. E. Knox, J. B. Cross, 
 V. Bakken, C. Adamo, J. Jaramillo, R. Gomperts, R. E. Stratmann, 
 O. Yazyev, A. J. Austin, R. Cammi, C. Pomelli, J. W. Ochterski, 
 R. L. Martin, K. Morokuma, V. G. Zakrzewski, G. A. Voth, 
 P. Salvador, J. J. Dannenberg, S. Dapprich, A. D. Daniels, 
 O. Farkas, J. B. Foresman, J. V. Ortiz, J. Cioslowski, 
 and D. J. Fox, Gaussian, Inc., Wallingford CT, 2013.
 
 ******************************************
 Gaussian 09:  EM64L-G09RevE.01 30-Nov-2015
                 8-Oct-2020 
 ******************************************
 %nprocshared=4
 Will use up to    4 processors via shared memory.
 %mem=10GB
 --------------------------------
 # opt freq b3lyp/6-31g(d) nosymm
 --------------------------------
 1/14=-1,18=20,19=15,26=3,38=1/1,3;
 2/9=110,12=2,15=1,17=6,18=5,40=1/2;
 3/5=1,6=6,7=1,11=2,16=1,25=1,30=1,71=1,74=-5/1,2,3;
 4//1;
 5/5=2,38=5/2;
 6/7=2,8=2,9=2,10=2,28=1/1;
 7/30=1/1,2,3,16;
 1/14=-1,18=20,19=15,26=3/3(2);
 2/9=110,15=1/2;
 99//99;
 2/9=110,15=1/2;
 3/5=1,6=6,7=1,11=2,16=1,25=1,30=1,71=1,74=-5/1,2,3;
 4/5=5,16=3,69=1/1;
 5/5=2,38=5/2;
 7/30=1/1,2,3,16;
 1/14=-1,18=20,19=15,26=3/3(-5);
 2/9=110,15=1/2;
 6/7=2,8=2,9=2,10=2,19=2,28=1/1;
 99/9=1/99;
 -------------------
 Title Card Required
 -------------------
 Symbolic Z-matrix:
 Charge =  1 Multiplicity = 1
 C                    -0.70529   1.46552   0.78936 
 C                    -3.07794   1.61672  -0.72151 
 C                    -2.82677   2.52647   0.25729 
 N                    -1.68326   2.45395   0.98431 
 H                    -3.98384   1.65823  -1.31226 
 H                    -3.50743   3.33468   0.50087 
 O                     0.30362   1.44977   1.47811 
 N                    -0.96984   0.54508  -0.2108 
 C                    -2.09032   0.60071  -0.9387 
 N                    -2.28856  -0.32386  -1.89688 
 H                    -1.60934  -1.04675  -2.07928 
 H                    -3.12089  -0.31037  -2.46754 
 H                    -1.47969   3.12322   1.71813 
 S                     2.47436  -2.26631  -0.32181 
 C                     3.81193  -1.02415  -0.25918 
 H                     3.91349  -0.60139  -1.26134 
 H                     3.57623  -0.2323    0.45693 
 H                     4.74787  -1.51603   0.01577 
 C                     0.59865  -0.82038  -0.33664 
 H                     1.0094   -0.25001   0.48441 
 H                     0.80136  -0.52625  -1.35596 
 H                    -0.07136  -1.64535  -0.14308 
 C                     2.4277   -2.80913   1.42125 
 H                     1.63228  -3.55246   1.51193 
 H                     3.38107  -3.2762    1.67905 
 H                     2.22796  -1.96594   2.08817 
 
 Add virtual bond connecting atoms C19        and N8         Dist= 3.94D+00.
 Add virtual bond connecting atoms H20        and O7         Dist= 3.95D+00.
 Add virtual bond connecting atoms C19        and S14        Dist= 4.48D+00.

 GradGradGradGradGradGradGradGradGradGradGradGradGradGradGradGradGradGrad
 Berny optimization.
 Initialization pass.
                           ----------------------------
                           !    Initial Parameters    !
                           ! (Angstroms and Degrees)  !
 --------------------------                            --------------------------
 ! Name  Definition              Value          Derivative Info.                !
 --------------------------------------------------------------------------------
 ! R1    R(1,4)                  1.4041         estimate D2E/DX2                !
 ! R2    R(1,7)                  1.2217         estimate D2E/DX2                !
 ! R3    R(1,8)                  1.3847         estimate D2E/DX2                !
 ! R4    R(2,3)                  1.3597         estimate D2E/DX2                !
 ! R5    R(2,5)                  1.0823         estimate D2E/DX2                !
 ! R6    R(2,9)                  1.4335         estimate D2E/DX2                !
 ! R7    R(3,4)                  1.357          estimate D2E/DX2                !
 ! R8    R(3,6)                  1.0844         estimate D2E/DX2                !
 ! R9    R(4,13)                 1.0138         estimate D2E/DX2                !
 ! R10   R(7,20)                 2.0916         estimate D2E/DX2                !
 ! R11   R(8,9)                  1.3373         estimate D2E/DX2                !
 ! R12   R(8,19)                 2.0834         estimate D2E/DX2                !
 ! R13   R(9,10)                 1.3462         estimate D2E/DX2                !
 ! R14   R(10,11)                1.0085         estimate D2E/DX2                !
 ! R15   R(10,12)                1.0093         estimate D2E/DX2                !
 ! R16   R(14,15)                1.8265         estimate D2E/DX2                !
 ! R17   R(14,19)                2.3684         estimate D2E/DX2                !
 ! R18   R(14,23)                1.8262         estimate D2E/DX2                !
 ! R19   R(15,16)                1.0924         estimate D2E/DX2                !
 ! R20   R(15,17)                1.0933         estimate D2E/DX2                !
 ! R21   R(15,18)                1.0925         estimate D2E/DX2                !
 ! R22   R(19,20)                1.0808         estimate D2E/DX2                !
 ! R23   R(19,21)                1.0801         estimate D2E/DX2                !
 ! R24   R(19,22)                1.0803         estimate D2E/DX2                !
 ! R25   R(23,24)                1.0925         estimate D2E/DX2                !
 ! R26   R(23,25)                1.0925         estimate D2E/DX2                !
 ! R27   R(23,26)                1.0935         estimate D2E/DX2                !
 ! A1    A(4,1,7)              120.3978         estimate D2E/DX2                !
 ! A2    A(4,1,8)              115.7948         estimate D2E/DX2                !
 ! A3    A(7,1,8)              123.8074         estimate D2E/DX2                !
 ! A4    A(3,2,5)              121.4584         estimate D2E/DX2                !
 ! A5    A(3,2,9)              117.1307         estimate D2E/DX2                !
 ! A6    A(5,2,9)              121.4109         estimate D2E/DX2                !
 ! A7    A(2,3,4)              120.3705         estimate D2E/DX2                !
 ! A8    A(2,3,6)              122.9863         estimate D2E/DX2                !
 ! A9    A(4,3,6)              116.6433         estimate D2E/DX2                !
 ! A10   A(1,4,3)              123.3786         estimate D2E/DX2                !
 ! A11   A(1,4,13)             115.1741         estimate D2E/DX2                !
 ! A12   A(3,4,13)             121.4472         estimate D2E/DX2                !
 ! A13   A(1,7,20)              91.2202         estimate D2E/DX2                !
 ! A14   A(1,8,9)              121.7059         estimate D2E/DX2                !
 ! A15   A(1,8,19)             109.5995         estimate D2E/DX2                !
 ! A16   A(9,8,19)             128.6946         estimate D2E/DX2                !
 ! A17   A(2,9,8)              121.6192         estimate D2E/DX2                !
 ! A18   A(2,9,10)             119.5495         estimate D2E/DX2                !
 ! A19   A(8,9,10)             118.8313         estimate D2E/DX2                !
 ! A20   A(9,10,11)            121.4551         estimate D2E/DX2                !
 ! A21   A(9,10,12)            120.9784         estimate D2E/DX2                !
 ! A22   A(11,10,12)           117.5624         estimate D2E/DX2                !
 ! A23   A(15,14,19)            99.4972         estimate D2E/DX2                !
 ! A24   A(15,14,23)           100.844          estimate D2E/DX2                !
 ! A25   A(19,14,23)            99.6258         estimate D2E/DX2                !
 ! A26   A(14,15,16)           107.4472         estimate D2E/DX2                !
 ! A27   A(14,15,17)           110.9249         estimate D2E/DX2                !
 ! A28   A(14,15,18)           109.2576         estimate D2E/DX2                !
 ! A29   A(16,15,17)           109.9148         estimate D2E/DX2                !
 ! A30   A(16,15,18)           108.9942         estimate D2E/DX2                !
 ! A31   A(17,15,18)           110.238          estimate D2E/DX2                !
 ! A32   A(8,19,20)             83.9357         estimate D2E/DX2                !
 ! A33   A(8,19,21)             91.1357         estimate D2E/DX2                !
 ! A34   A(8,19,22)             91.3035         estimate D2E/DX2                !
 ! A35   A(14,19,20)            90.942          estimate D2E/DX2                !
 ! A36   A(14,19,21)            91.3482         estimate D2E/DX2                !
 ! A37   A(14,19,22)            91.367          estimate D2E/DX2                !
 ! A38   A(20,19,21)           120.1247         estimate D2E/DX2                !
 ! A39   A(20,19,22)           120.1725         estimate D2E/DX2                !
 ! A40   A(21,19,22)           119.5682         estimate D2E/DX2                !
 ! A41   A(7,20,19)            131.4168         estimate D2E/DX2                !
 ! A42   A(14,23,24)           107.462          estimate D2E/DX2                !
 ! A43   A(14,23,25)           109.2691         estimate D2E/DX2                !
 ! A44   A(14,23,26)           110.9526         estimate D2E/DX2                !
 ! A45   A(24,23,25)           108.9601         estimate D2E/DX2                !
 ! A46   A(24,23,26)           109.9415         estimate D2E/DX2                !
 ! A47   A(25,23,26)           110.1919         estimate D2E/DX2                !
 ! A48   L(8,19,14,20,-1)      174.8777         estimate D2E/DX2                !
 ! A49   L(8,19,14,20,-2)      180.1064         estimate D2E/DX2                !
 ! D1    D(7,1,4,3)           -179.8267         estimate D2E/DX2                !
 ! D2    D(7,1,4,13)             0.0492         estimate D2E/DX2                !
 ! D3    D(8,1,4,3)              0.1745         estimate D2E/DX2                !
 ! D4    D(8,1,4,13)          -179.9495         estimate D2E/DX2                !
 ! D5    D(4,1,7,20)           179.6117         estimate D2E/DX2                !
 ! D6    D(8,1,7,20)            -0.3897         estimate D2E/DX2                !
 ! D7    D(4,1,8,9)             -0.1086         estimate D2E/DX2                !
 ! D8    D(4,1,8,19)           179.8448         estimate D2E/DX2                !
 ! D9    D(7,1,8,9)            179.8927         estimate D2E/DX2                !
 ! D10   D(7,1,8,19)            -0.1539         estimate D2E/DX2                !
 ! D11   D(5,2,3,4)           -179.9712         estimate D2E/DX2                !
 ! D12   D(5,2,3,6)              0.0026         estimate D2E/DX2                !
 ! D13   D(9,2,3,4)             -0.0447         estimate D2E/DX2                !
 ! D14   D(9,2,3,6)            179.9291         estimate D2E/DX2                !
 ! D15   D(3,2,9,8)              0.1074         estimate D2E/DX2                !
 ! D16   D(3,2,9,10)          -179.9082         estimate D2E/DX2                !
 ! D17   D(5,2,9,8)           -179.966          estimate D2E/DX2                !
 ! D18   D(5,2,9,10)             0.0184         estimate D2E/DX2                !
 ! D19   D(2,3,4,1)             -0.0982         estimate D2E/DX2                !
 ! D20   D(2,3,4,13)          -179.9666         estimate D2E/DX2                !
 ! D21   D(6,3,4,1)            179.9264         estimate D2E/DX2                !
 ! D22   D(6,3,4,13)             0.058          estimate D2E/DX2                !
 ! D23   D(1,7,20,19)            1.7304         estimate D2E/DX2                !
 ! D24   D(1,8,9,2)             -0.0268         estimate D2E/DX2                !
 ! D25   D(1,8,9,10)           179.9887         estimate D2E/DX2                !
 ! D26   D(19,8,9,2)          -179.9706         estimate D2E/DX2                !
 ! D27   D(19,8,9,10)            0.0449         estimate D2E/DX2                !
 ! D28   D(1,8,19,20)            1.0755         estimate D2E/DX2                !
 ! D29   D(1,8,19,21)         -119.1034         estimate D2E/DX2                !
 ! D30   D(1,8,19,22)          121.2839         estimate D2E/DX2                !
 ! D31   D(9,8,19,20)         -178.9753         estimate D2E/DX2                !
 ! D32   D(9,8,19,21)           60.8458         estimate D2E/DX2                !
 ! D33   D(9,8,19,22)          -58.7669         estimate D2E/DX2                !
 ! D34   D(2,9,10,11)          179.4874         estimate D2E/DX2                !
 ! D35   D(2,9,10,12)            0.2459         estimate D2E/DX2                !
 ! D36   D(8,9,10,11)           -0.5278         estimate D2E/DX2                !
 ! D37   D(8,9,10,12)         -179.7693         estimate D2E/DX2                !
 ! D38   D(19,14,15,16)        -76.6129         estimate D2E/DX2                !
 ! D39   D(19,14,15,17)         43.548          estimate D2E/DX2                !
 ! D40   D(19,14,15,18)        165.2755         estimate D2E/DX2                !
 ! D41   D(23,14,15,16)       -178.4227         estimate D2E/DX2                !
 ! D42   D(23,14,15,17)        -58.2618         estimate D2E/DX2                !
 ! D43   D(23,14,15,18)         63.4657         estimate D2E/DX2                !
 ! D44   D(15,14,19,20)        -47.5214         estimate D2E/DX2                !
 ! D45   D(15,14,19,21)         72.6426         estimate D2E/DX2                !
 ! D46   D(15,14,19,22)       -167.7339         estimate D2E/DX2                !
 ! D47   D(23,14,19,20)         55.296          estimate D2E/DX2                !
 ! D48   D(23,14,19,21)        175.4601         estimate D2E/DX2                !
 ! D49   D(23,14,19,22)        -64.9164         estimate D2E/DX2                !
 ! D50   D(15,14,23,24)        178.7473         estimate D2E/DX2                !
 ! D51   D(15,14,23,25)        -63.1671         estimate D2E/DX2                !
 ! D52   D(15,14,23,26)         58.5283         estimate D2E/DX2                !
 ! D53   D(19,14,23,24)         77.0415         estimate D2E/DX2                !
 ! D54   D(19,14,23,25)       -164.8729         estimate D2E/DX2                !
 ! D55   D(19,14,23,26)        -43.1775         estimate D2E/DX2                !
 ! D56   D(8,19,20,7)           -1.4676         estimate D2E/DX2                !
 ! D57   D(14,19,20,7)         178.4261         estimate D2E/DX2                !
 ! D58   D(21,19,20,7)          86.3201         estimate D2E/DX2                !
 ! D59   D(22,19,20,7)         -89.4445         estimate D2E/DX2                !
 --------------------------------------------------------------------------------
 Trust Radius=3.00D-01 FncErr=1.00D-07 GrdErr=1.00D-06
 Number of steps in this run=    145 maximum allowed number of steps=    156.
 GradGradGradGradGradGradGradGradGradGradGradGradGradGradGradGradGradGrad

                          Input orientation:                          
 ---------------------------------------------------------------------
 Center     Atomic      Atomic             Coordinates (Angstroms)
 Number     Number       Type             X           Y           Z
 ---------------------------------------------------------------------
      1          6           0       -0.705289    1.465521    0.789358
      2          6           0       -3.077944    1.616717   -0.721510
      3          6           0       -2.826766    2.526469    0.257288
      4          7           0       -1.683257    2.453955    0.984314
      5          1           0       -3.983837    1.658235   -1.312255
      6          1           0       -3.507427    3.334677    0.500871
      7          8           0        0.303621    1.449774    1.478115
      8          7           0       -0.969843    0.545085   -0.210796
      9          6           0       -2.090318    0.600709   -0.938701
     10          7           0       -2.288557   -0.323864   -1.896875
     11          1           0       -1.609342   -1.046751   -2.079277
     12          1           0       -3.120894   -0.310373   -2.467544
     13          1           0       -1.479693    3.123222    1.718130
     14         16           0        2.474362   -2.266306   -0.321806
     15          6           0        3.811926   -1.024148   -0.259181
     16          1           0        3.913493   -0.601385   -1.261344
     17          1           0        3.576234   -0.232299    0.456930
     18          1           0        4.747874   -1.516029    0.015775
     19          6           0        0.598650   -0.820380   -0.336640
     20          1           0        1.009399   -0.250011    0.484412
     21          1           0        0.801357   -0.526253   -1.355964
     22          1           0       -0.071363   -1.645350   -0.143079
     23          6           0        2.427702   -2.809134    1.421255
     24          1           0        1.632280   -3.552459    1.511931
     25          1           0        3.381069   -3.276197    1.679048
     26          1           0        2.227959   -1.965939    2.088170
 ---------------------------------------------------------------------
                    Distance matrix (angstroms):
                    1          2          3          4          5
     1  C    0.000000
     2  C    2.816926   0.000000
     3  C    2.430920   1.359700   0.000000
     4  N    1.404077   2.357107   1.356996   0.000000
     5  H    3.899076   1.082287   2.134504   3.346650   0.000000
     6  H    3.380672   2.151757   1.084358   2.082543   2.514925
     7  O    1.221693   4.037475   3.528316   2.280330   5.119757
     8  N    1.384738   2.419362   2.755567   2.362421   3.396539
     9  C    2.377476   1.433475   2.383547   2.701519   2.200754
    10  N    3.595064   2.402180   3.613099   4.047705   2.672914
    11  H    3.918914   3.330823   4.439545   4.652526   3.680149
    12  H    4.426777   2.600799   3.944476   4.650122   2.440242
    13  H    2.051900   3.282652   2.074796   1.013826   4.195254
    14  S    5.027067   6.787174   7.169937   6.424376   7.621768
    15  C    5.263375   7.393120   7.546248   6.621217   8.311321
    16  H    5.459911   7.354698   7.584247   6.760303   8.214396
    17  H    4.617850   7.006116   6.974888   5.929278   7.991171
    18  H    6.262991   8.461744   8.589254   7.619599   9.385222
    19  C    2.862424   4.427743   4.825725   4.203961   5.300429
    20  H    2.444626   4.652450   4.740948   3.848601   5.639310
    21  H    3.292348   4.477033   5.008490   4.531208   5.260416
    22  H    3.308900   4.473834   5.015637   4.546814   5.252437
    23  C    5.337378   7.381852   7.578451   6.692608   8.278725
    24  H    5.582693   7.341311   7.642682   6.881001   8.165055
    25  H    6.322480   8.451162   8.615657   7.678847   9.356193
    26  H    4.697422   6.991590   7.006005   6.004296   7.955120
                    6          7          8          9         10
     6  H    0.000000
     7  O    4.362563   0.000000
     8  N    3.837659   2.300564   0.000000
     9  C    3.399286   3.506117   1.337312   0.000000
    10  N    4.540898   4.610394   2.310182   1.346191   0.000000
    11  H    5.427412   4.748379   2.536557   2.060674   1.008548
    12  H    4.716703   5.513043   3.232915   2.056579   1.009272
    13  H    2.374476   2.457284   3.259984   3.714120   5.060131
    14  S    8.235873   4.664878   4.447335   5.425554   5.379528
    15  C    8.552775   4.631057   5.032907   6.159415   6.355182
    16  H    8.583009   4.974240   5.124940   6.131466   6.240700
    17  H    7.931173   3.818663   4.660150   5.895040   6.320171
    18  H    9.587213   5.539477   6.082090   7.221667   7.388562
    19  C    5.901338   2.921297   2.083387   3.100406   3.319160
    20  H    5.766453   2.091611   2.243411   3.515284   4.068476
    21  H    6.076202   3.490620   2.365655   3.131443   3.143424
    22  H    6.084560   3.514068   2.368514   3.123135   3.120589
    23  C    8.591815   4.759543   5.045561   6.132612   6.279304
    24  H    8.652830   5.175791   5.150602   6.091973   6.116923
    25  H    9.619934   5.643214   6.091317   7.198547   7.324490
    26  H    7.969360   3.967662   4.670805   5.864908   6.243069
                   11         12         13         14         15
    11  H    0.000000
    12  H    1.725628   0.000000
    13  H    5.641435   5.657118   0.000000
    14  S    4.610060   6.303710   6.988770   0.000000
    15  C    5.718689   7.310974   7.007972   1.826460   0.000000
    16  H    5.600810   7.142983   7.199751   2.392863   1.092417
    17  H    5.829741   7.308226   6.197785   2.440847   1.093339
    18  H    6.709967   8.338944   7.950047   2.417795   1.092495
    19  C    2.821924   4.316928   4.908522   2.368379   3.220662
    20  H    3.750347   5.077106   4.369936   2.619456   3.001063
    21  H    2.570130   4.082434   5.288848   2.626064   3.242585
    22  H    2.544123   4.060165   5.309122   2.626451   3.934375
    23  C    5.626495   7.221737   7.109762   1.826226   2.815336
    24  H    5.448253   6.995713   7.368284   2.392882   3.778895
    25  H    6.633222   8.262316   8.036237   2.417729   3.002348
    26  H    5.739111   7.218425   6.307390   2.441090   2.984289
                   16         17         18         19         20
    16  H    0.000000
    17  H    1.789534   0.000000
    18  H    1.778707   1.793132   0.000000
    19  C    3.448365   3.137132   4.221870   0.000000
    20  H    3.406595   2.567043   3.974747   1.080815   0.000000
    21  H    3.114480   3.327602   4.293754   1.080103   1.872585
    22  H    4.268426   3.957485   4.823588   1.080259   1.873169
    23  C    3.778633   2.981464   3.005111   3.223472   3.072193
    24  H    4.647991   3.989417   4.011540   3.456857   3.514248
    25  H    4.010486   3.285875   2.780796   4.223256   4.026137
    26  H    3.990273   2.735744   3.293511   3.137938   2.646004
                   21         22         23         24         25
    21  H    0.000000
    22  H    1.866844   0.000000
    23  C    3.945819   3.169678   0.000000
    24  H    4.251256   3.046067   1.092452   0.000000
    25  H    4.840290   4.230732   1.092481   1.778345   0.000000
    26  H    3.996242   3.219958   1.093458   1.789953   1.792713
                   26
    26  H    0.000000
 Symmetry turned off by external request.
 Stoichiometry    C7H14N3OS(1+)
 Framework group  C1[X(C7H14N3OS)]
 Deg. of freedom    72
 Full point group                 C1      NOp   1
 Rotational constants (GHZ):      1.4665567      0.3458361      0.3024480
 Standard basis: 6-31G(d) (6D, 7F)
   212 basis functions,   416 primitive gaussians,   212 cartesian basis functions
    50 alpha electrons       50 beta electrons
       nuclear repulsion energy       794.6734356037 Hartrees.
 NAtoms=   26 NActive=   26 NUniq=   26 SFac= 1.00D+00 NAtFMM=   60 NAOKFM=F Big=F
 Integral buffers will be    131072 words long.
 Raffenetti 2 integral format.
 Two-electron integral symmetry is turned off.
 One-electron integrals computed using PRISM.
 NBasis=   212 RedAO= T EigKep=  1.13D-03  NBF=   212
 NBsUse=   212 1.00D-06 EigRej= -1.00D+00 NBFU=   212
 ExpMin= 1.17D-01 ExpMax= 2.19D+04 ExpMxC= 3.30D+03 IAcc=1 IRadAn=         1 AccDes= 0.00D+00
 Harris functional with IExCor=  402 and IRadAn=       1 diagonalized for initial guess.
 HarFok:  IExCor=  402 AccDes= 0.00D+00 IRadAn=         1 IDoV= 1 UseB2=F ITyADJ=14
 ICtDFT=  3500011 ScaDFX=  1.000000  1.000000  1.000000  1.000000
 FoFCou: FMM=F IPFlag=           0 FMFlag=      100000 FMFlg1=           0
         NFxFlg=           0 DoJE=T BraDBF=F KetDBF=T FulRan=T
         wScrn=  0.000000 ICntrl=     500 IOpCl=  0 I1Cent=   200000004 NGrid=           0
         NMat0=    1 NMatS0=      1 NMatT0=    0 NMatD0=    1 NMtDS0=    0 NMtDT0=    0
 Symmetry not used in FoFCou.
 Keep R1 ints in memory in canonical form, NReq=259882001.
 Requested convergence on RMS density matrix=1.00D-08 within 128 cycles.
 Requested convergence on MAX density matrix=1.00D-06.
 Requested convergence on             energy=1.00D-06.
 No special actions if energy rises.
 Integral accuracy reduced to 1.0D-05 until final iterations.
 Initial convergence to 1.0D-05 achieved.  Increase integral accuracy.
 SCF Done:  E(RB3LYP) =  -912.605169667     A.U. after   16 cycles
            NFock= 16  Conv=0.33D-08     -V/T= 2.0069

 **********************************************************************

            Population analysis using the SCF density.

 **********************************************************************

 Alpha  occ. eigenvalues --  -89.04115 -19.24603 -14.52923 -14.51351 -14.48812
 Alpha  occ. eigenvalues --  -10.45242 -10.43748 -10.39603 -10.38985 -10.34430
 Alpha  occ. eigenvalues --  -10.34383 -10.33614  -8.10194  -6.06595  -6.06269
 Alpha  occ. eigenvalues --   -6.05836  -1.18808  -1.12006  -1.09070  -1.02519
 Alpha  occ. eigenvalues --   -0.94987  -0.92298  -0.85291  -0.84186  -0.80955
 Alpha  occ. eigenvalues --   -0.79748  -0.74081  -0.71418  -0.70203  -0.67714
 Alpha  occ. eigenvalues --   -0.64044  -0.60424  -0.59506  -0.58565  -0.58533
 Alpha  occ. eigenvalues --   -0.57760  -0.57368  -0.56392  -0.55926  -0.54634
 Alpha  occ. eigenvalues --   -0.54232  -0.52526  -0.50633  -0.48889  -0.48406
 Alpha  occ. eigenvalues --   -0.45146  -0.40492  -0.40262  -0.37572  -0.37147
 Alpha virt. eigenvalues --   -0.17216  -0.15544  -0.11895  -0.10127  -0.07803
 Alpha virt. eigenvalues --   -0.06014  -0.04990  -0.03730  -0.01401  -0.00290
 Alpha virt. eigenvalues --   -0.00191   0.00761   0.01351   0.01558   0.02198
 Alpha virt. eigenvalues --    0.03736   0.04324   0.04432   0.06926   0.08398
 Alpha virt. eigenvalues --    0.09974   0.10751   0.16198   0.17664   0.20059
 Alpha virt. eigenvalues --    0.22123   0.23056   0.24658   0.25608   0.26427
 Alpha virt. eigenvalues --    0.29911   0.31278   0.33182   0.36275   0.36298
 Alpha virt. eigenvalues --    0.37826   0.41221   0.42056   0.43142   0.44260
 Alpha virt. eigenvalues --    0.44490   0.45279   0.46816   0.48441   0.49095
 Alpha virt. eigenvalues --    0.50439   0.51864   0.51969   0.53362   0.53824
 Alpha virt. eigenvalues --    0.59696   0.59808   0.62329   0.63950   0.66595
 Alpha virt. eigenvalues --    0.66973   0.68057   0.69990   0.70401   0.71735
 Alpha virt. eigenvalues --    0.72201   0.72709   0.73097   0.73586   0.74422
 Alpha virt. eigenvalues --    0.75143   0.75334   0.76451   0.77320   0.77631
 Alpha virt. eigenvalues --    0.79348   0.80468   0.82468   0.83138   0.83839
 Alpha virt. eigenvalues --    0.84836   0.87508   0.89073   0.91592   0.92195
 Alpha virt. eigenvalues --    0.94875   0.97955   1.05104   1.07063   1.07257
 Alpha virt. eigenvalues --    1.13315   1.16598   1.17361   1.18380   1.20276
 Alpha virt. eigenvalues --    1.22444   1.25202   1.26486   1.28997   1.29079
 Alpha virt. eigenvalues --    1.31851   1.32574   1.38149   1.48899   1.49911
 Alpha virt. eigenvalues --    1.53282   1.53414   1.54578   1.54874   1.58102
 Alpha virt. eigenvalues --    1.60081   1.61325   1.64086   1.64870   1.68141
 Alpha virt. eigenvalues --    1.69792   1.74796   1.75787   1.78197   1.81248
 Alpha virt. eigenvalues --    1.83123   1.87285   1.91293   1.95288   1.97332
 Alpha virt. eigenvalues --    1.99388   2.03869   2.05565   2.05962   2.06728
 Alpha virt. eigenvalues --    2.07036   2.07796   2.10976   2.11117   2.12300
 Alpha virt. eigenvalues --    2.14029   2.15593   2.15683   2.18857   2.25680
 Alpha virt. eigenvalues --    2.27533   2.29581   2.41370   2.46204   2.50154
 Alpha virt. eigenvalues --    2.52055   2.53881   2.56277   2.60384   2.65783
 Alpha virt. eigenvalues --    2.71743   2.85744   2.87790   3.09844   3.27356
 Alpha virt. eigenvalues --    3.68626   3.75941   3.83974   3.88383   4.00050
 Alpha virt. eigenvalues --    4.04295   4.06766   4.10698   4.13024   4.14476
 Alpha virt. eigenvalues --    4.39608   4.45922
          Condensed to atoms (all electrons):
               1          2          3          4          5          6
     1  C    4.146794  -0.019668  -0.028635   0.271422   0.000600   0.002162
     2  C   -0.019668   5.009759   0.585693  -0.027249   0.361799  -0.029319
     3  C   -0.028635   0.585693   4.696363   0.325911  -0.031395   0.368466
     4  N    0.271422  -0.027249   0.325911   7.004449   0.003281  -0.041286
     5  H    0.000600   0.361799  -0.031395   0.003281   0.509241  -0.003260
     6  H    0.002162  -0.029319   0.368466  -0.041286  -0.003260   0.484697
     7  O    0.586936   0.000727   0.002031  -0.088859   0.000004  -0.000090
     8  N    0.301709  -0.048150  -0.019421  -0.101834   0.003712  -0.000191
     9  C   -0.021105   0.465542  -0.020376  -0.021343  -0.029114   0.003015
    10  N    0.001143  -0.077640   0.003941   0.000205  -0.004673  -0.000119
    11  H    0.000036   0.004926  -0.000139   0.000009  -0.000070   0.000003
    12  H   -0.000038  -0.003024   0.000141   0.000018   0.003156  -0.000002
    13  H   -0.009354   0.003338  -0.024162   0.297419  -0.000094  -0.004926
    14  S    0.000068   0.000006   0.000000   0.000009  -0.000000   0.000000
    15  C   -0.000011   0.000000  -0.000000  -0.000000   0.000000  -0.000000
    16  H    0.000001  -0.000000  -0.000000  -0.000000   0.000000  -0.000000
    17  H   -0.000004  -0.000000  -0.000000  -0.000000   0.000000   0.000000
    18  H    0.000000   0.000000   0.000000   0.000000  -0.000000   0.000000
    19  C   -0.016082   0.001000   0.000050   0.000161  -0.000013   0.000001
    20  H    0.001305  -0.000090  -0.000066   0.000824   0.000001   0.000001
    21  H    0.000592  -0.000076  -0.000010  -0.000011   0.000002  -0.000000
    22  H    0.000721  -0.000078  -0.000010  -0.000008   0.000002  -0.000000
    23  C   -0.000006  -0.000000  -0.000000  -0.000000   0.000000  -0.000000
    24  H    0.000000  -0.000000  -0.000000  -0.000000   0.000000  -0.000000
    25  H    0.000000   0.000000   0.000000   0.000000  -0.000000   0.000000
    26  H   -0.000001  -0.000000  -0.000000  -0.000000   0.000000  -0.000000
               7          8          9         10         11         12
     1  C    0.586936   0.301709  -0.021105   0.001143   0.000036  -0.000038
     2  C    0.000727  -0.048150   0.465542  -0.077640   0.004926  -0.003024
     3  C    0.002031  -0.019421  -0.020376   0.003941  -0.000139   0.000141
     4  N   -0.088859  -0.101834  -0.021343   0.000205   0.000009   0.000018
     5  H    0.000004   0.003712  -0.029114  -0.004673  -0.000070   0.003156
     6  H   -0.000090  -0.000191   0.003015  -0.000119   0.000003  -0.000002
     7  O    8.066371  -0.083513   0.000437  -0.000061  -0.000002   0.000001
     8  N   -0.083513   7.237052   0.413786  -0.080439  -0.002183   0.003492
     9  C    0.000437   0.413786   4.276828   0.343039  -0.013589  -0.017798
    10  N   -0.000061  -0.080439   0.343039   6.959453   0.309867   0.319881
    11  H   -0.000002  -0.002183  -0.013589   0.309867   0.349741  -0.020878
    12  H    0.000001   0.003492  -0.017798   0.319881  -0.020878   0.335627
    13  H    0.006955   0.005354   0.000461   0.000016  -0.000001  -0.000001
    14  S    0.000130   0.008045  -0.000019  -0.000050   0.000155   0.000001
    15  C   -0.000038  -0.000059  -0.000001  -0.000000  -0.000000  -0.000000
    16  H    0.000001  -0.000006  -0.000000   0.000000  -0.000000   0.000000
    17  H    0.000106  -0.000074   0.000000   0.000000  -0.000000  -0.000000
    18  H    0.000000   0.000001   0.000000  -0.000000   0.000000   0.000000
    19  C   -0.024068   0.057935  -0.003381  -0.003927   0.004404   0.000027
    20  H    0.042351  -0.034238   0.001341   0.000142  -0.000098   0.000000
    21  H    0.000344  -0.019005  -0.000202   0.001032   0.000551   0.000001
    22  H    0.000386  -0.019110  -0.000253   0.001126   0.000624   0.000003
    23  C   -0.000012  -0.000058  -0.000000   0.000000  -0.000000  -0.000000
    24  H    0.000000  -0.000005  -0.000000   0.000000  -0.000000   0.000000
    25  H    0.000000   0.000001   0.000000  -0.000000   0.000000   0.000000
    26  H    0.000027  -0.000073   0.000000   0.000000  -0.000000  -0.000000
              13         14         15         16         17         18
     1  C   -0.009354   0.000068  -0.000011   0.000001  -0.000004   0.000000
     2  C    0.003338   0.000006   0.000000  -0.000000  -0.000000   0.000000
     3  C   -0.024162   0.000000  -0.000000  -0.000000  -0.000000   0.000000
     4  N    0.297419   0.000009  -0.000000  -0.000000  -0.000000   0.000000
     5  H   -0.000094  -0.000000   0.000000   0.000000   0.000000  -0.000000
     6  H   -0.004926   0.000000  -0.000000  -0.000000   0.000000   0.000000
     7  O    0.006955   0.000130  -0.000038   0.000001   0.000106   0.000000
     8  N    0.005354   0.008045  -0.000059  -0.000006  -0.000074   0.000001
     9  C    0.000461  -0.000019  -0.000001  -0.000000   0.000000   0.000000
    10  N    0.000016  -0.000050  -0.000000   0.000000   0.000000  -0.000000
    11  H   -0.000001   0.000155  -0.000000  -0.000000  -0.000000   0.000000
    12  H   -0.000001   0.000001  -0.000000   0.000000  -0.000000   0.000000
    13  H    0.344938  -0.000001   0.000000   0.000000   0.000000  -0.000000
    14  S   -0.000001  15.466023   0.244973  -0.031873  -0.043890  -0.033736
    15  C    0.000000   0.244973   5.284129   0.371140   0.368239   0.371593
    16  H    0.000000  -0.031873   0.371140   0.480726  -0.021046  -0.019665
    17  H    0.000000  -0.043890   0.368239  -0.021046   0.502615  -0.025564
    18  H   -0.000000  -0.033736   0.371593  -0.019665  -0.025564   0.480173
    19  C   -0.000007   0.092987  -0.010603  -0.000123  -0.002348   0.000631
    20  H   -0.000014  -0.032145   0.000394  -0.000071   0.004526  -0.000107
    21  H    0.000001  -0.027971   0.000771   0.000609   0.000164  -0.000040
    22  H    0.000001  -0.028039   0.000768   0.000006   0.000114  -0.000025
    23  C    0.000000   0.244825  -0.028571   0.002386  -0.002693  -0.002560
    24  H    0.000000  -0.031915   0.002389  -0.000057   0.000002  -0.000010
    25  H   -0.000000  -0.033619  -0.002551  -0.000010  -0.000650   0.003426
    26  H    0.000000  -0.044293  -0.002649   0.000002   0.004617  -0.000657
              19         20         21         22         23         24
     1  C   -0.016082   0.001305   0.000592   0.000721  -0.000006   0.000000
     2  C    0.001000  -0.000090  -0.000076  -0.000078  -0.000000  -0.000000
     3  C    0.000050  -0.000066  -0.000010  -0.000010  -0.000000  -0.000000
     4  N    0.000161   0.000824  -0.000011  -0.000008  -0.000000  -0.000000
     5  H   -0.000013   0.000001   0.000002   0.000002   0.000000   0.000000
     6  H    0.000001   0.000001  -0.000000  -0.000000  -0.000000  -0.000000
     7  O   -0.024068   0.042351   0.000344   0.000386  -0.000012   0.000000
     8  N    0.057935  -0.034238  -0.019005  -0.019110  -0.000058  -0.000005
     9  C   -0.003381   0.001341  -0.000202  -0.000253  -0.000000  -0.000000
    10  N   -0.003927   0.000142   0.001032   0.001126   0.000000   0.000000
    11  H    0.004404  -0.000098   0.000551   0.000624  -0.000000  -0.000000
    12  H    0.000027   0.000000   0.000001   0.000003  -0.000000   0.000000
    13  H   -0.000007  -0.000014   0.000001   0.000001   0.000000   0.000000
    14  S    0.092987  -0.032145  -0.027971  -0.028039   0.244825  -0.031915
    15  C   -0.010603   0.000394   0.000771   0.000768  -0.028571   0.002389
    16  H   -0.000123  -0.000071   0.000609   0.000006   0.002386  -0.000057
    17  H   -0.002348   0.004526   0.000164   0.000114  -0.002693   0.000002
    18  H    0.000631  -0.000107  -0.000040  -0.000025  -0.002560  -0.000010
    19  C    5.232713   0.348604   0.376659   0.375463  -0.010479  -0.000220
    20  H    0.348604   0.420882  -0.014510  -0.014514   0.000262  -0.000049
    21  H    0.376659  -0.014510   0.476788  -0.025045   0.000771   0.000005
    22  H    0.375463  -0.014514  -0.025045   0.480467   0.000835   0.000757
    23  C   -0.010479   0.000262   0.000771   0.000835   5.283574   0.371048
    24  H   -0.000220  -0.000049   0.000005   0.000757   0.371048   0.481991
    25  H    0.000619  -0.000100  -0.000024  -0.000043   0.371895  -0.019664
    26  H   -0.001970   0.003712   0.000106   0.000204   0.368248  -0.021293
              25         26
     1  C    0.000000  -0.000001
     2  C    0.000000  -0.000000
     3  C    0.000000  -0.000000
     4  N    0.000000  -0.000000
     5  H   -0.000000   0.000000
     6  H    0.000000  -0.000000
     7  O    0.000000   0.000027
     8  N    0.000001  -0.000073
     9  C    0.000000   0.000000
    10  N   -0.000000   0.000000
    11  H    0.000000  -0.000000
    12  H    0.000000  -0.000000
    13  H   -0.000000   0.000000
    14  S   -0.033619  -0.044293
    15  C   -0.002551  -0.002649
    16  H   -0.000010   0.000002
    17  H   -0.000650   0.004617
    18  H    0.003426  -0.000657
    19  C    0.000619  -0.001970
    20  H   -0.000100   0.003712
    21  H   -0.000024   0.000106
    22  H   -0.000043   0.000204
    23  C    0.371895   0.368248
    24  H   -0.019664  -0.021293
    25  H    0.479619  -0.025804
    26  H   -0.025804   0.505971
 Mulliken charges:
               1
     1  C    0.781413
     2  C   -0.227496
     3  C    0.141619
     4  N   -0.623119
     5  H    0.186821
     6  H    0.220847
     7  O   -0.510164
     8  N   -0.622728
     9  C    0.622732
    10  N   -0.772936
    11  H    0.366646
    12  H    0.379391
    13  H    0.380076
    14  S    0.250327
    15  C   -0.599913
    16  H    0.217979
    17  H    0.215884
    18  H    0.226540
    19  C   -0.418033
    20  H    0.271656
    21  H    0.228497
    22  H    0.225649
    23  C   -0.599465
    24  H    0.217020
    25  H    0.226906
    26  H    0.213854
 Sum of Mulliken charges =   1.00000
 Mulliken charges with hydrogens summed into heavy atoms:
               1
     1  C    0.781413
     2  C   -0.040676
     3  C    0.362466
     4  N   -0.243044
     7  O   -0.510164
     8  N   -0.622728
     9  C    0.622732
    10  N   -0.026900
    14  S    0.250327
    15  C    0.060491
    19  C    0.307769
    23  C    0.058315
 Electronic spatial extent (au):  <R**2>=           3571.0134
 Charge=              1.0000 electrons
 Dipole moment (field-independent basis, Debye):
    X=             -2.3884    Y=             -0.6823    Z=             -2.1117  Tot=              3.2603
 Quadrupole moment (field-independent basis, Debye-Ang):
   XX=            -31.8361   YY=            -51.7334   ZZ=            -65.9561
   XY=            -23.4729   XZ=              8.5581   YZ=              1.4983
 Traceless Quadrupole moment (field-independent basis, Debye-Ang):
   XX=             18.0058   YY=             -1.8916   ZZ=            -16.1142
   XY=            -23.4729   XZ=              8.5581   YZ=              1.4983
 Octapole moment (field-independent basis, Debye-Ang**2):
  XXX=             -5.5341  YYY=             39.8634  ZZZ=            -14.7164  XYY=            -32.7251
  XXY=             12.9596  XXZ=            -19.9896  XZZ=            -25.0801  YZZ=             -3.0166
  YYZ=             37.5342  XYZ=            -31.5696
 Hexadecapole moment (field-independent basis, Debye-Ang**3):
 XXXX=          -1934.6928 YYYY=          -1316.6911 ZZZZ=           -476.3995 XXXY=            482.6989
 XXXZ=            -10.6389 YYYX=            559.8343 YYYZ=            -17.9788 ZZZX=            -90.6379
 ZZZY=            -18.9689 XXYY=           -495.8412 XXZZ=           -402.0679 YYZZ=           -299.9460
 XXYZ=            -29.2838 YYXZ=            -42.2479 ZZXY=            226.4444
 N-N= 7.946734356037D+02 E-N=-3.716957732479D+03  KE= 9.063636303955D+02
 Calling FoFJK, ICntrl=      2127 FMM=F ISym2X=0 I1Cent= 0 IOpClX= 0 NMat=1 NMatS=1 NMatT=0.
 -------------------------------------------------------------------
 Center     Atomic                   Forces (Hartrees/Bohr)
 Number     Number              X              Y              Z
 -------------------------------------------------------------------
      1        6          -0.000002895   -0.000001521    0.000000139
      2        6          -0.000000776   -0.000000980   -0.000000569
      3        6          -0.000001887   -0.000001495    0.000000769
      4        7          -0.000001931   -0.000002553    0.000001408
      5        1           0.000000242   -0.000000653   -0.000000774
      6        1          -0.000002025   -0.000002774    0.000001198
      7        8          -0.000000843   -0.000001489    0.000002791
      8        7          -0.000000869   -0.000000065   -0.000000365
      9        6           0.000000926    0.000000818    0.000000175
     10        7           0.000001663   -0.000000158   -0.000002787
     11        1           0.000001593    0.000001879   -0.000002232
     12        1           0.000002117    0.000001064   -0.000002495
     13        1          -0.000003032   -0.000002512    0.000002842
     14       16           0.000002916    0.000003005    0.000000653
     15        6          -0.000001306    0.000003274    0.000002688
     16        1           0.000001148    0.000003445    0.000002393
     17        1           0.000000684   -0.000001082   -0.000000396
     18        1           0.000000590    0.000002369    0.000001755
     19        6           0.000000987    0.000001438    0.000005063
     20        1          -0.000002756   -0.000002855   -0.000003859
     21        1           0.000000975    0.000001287    0.000001198
     22        1           0.000003757    0.000002626   -0.000003748
     23        6          -0.000000013   -0.000001056   -0.000001027
     24        1           0.000001081   -0.000000637   -0.000002788
     25        1           0.000000327   -0.000000054   -0.000001278
     26        1          -0.000000672   -0.000001319   -0.000000755
 -------------------------------------------------------------------
 Cartesian Forces:  Max     0.000005063 RMS     0.000001953

 GradGradGradGradGradGradGradGradGradGradGradGradGradGradGradGradGradGrad
 Berny optimization.
 FormGI is forming the generalized inverse of G from B-inverse, IUseBI=4.
 Internal  Forces:  Max     0.000005188 RMS     0.000000789
 Search for a local minimum.
 Step number   1 out of a maximum of  145
 All quantities printed in internal units (Hartrees-Bohrs-Radians)
 Mixed Optimization -- En-DIIS/RFO-DIIS
 Second derivative matrix not updated -- first step.
 ITU=  0
     Eigenvalues ---    0.00230   0.00230   0.00230   0.00355   0.01299
     Eigenvalues ---    0.01883   0.01950   0.01980   0.02106   0.02186
     Eigenvalues ---    0.02291   0.02404   0.02404   0.02461   0.02505
     Eigenvalues ---    0.04014   0.05166   0.06042   0.06198   0.06730
     Eigenvalues ---    0.06846   0.07070   0.07074   0.07488   0.07491
     Eigenvalues ---    0.07734   0.08737   0.10261   0.11370   0.12382
     Eigenvalues ---    0.12726   0.16000   0.16000   0.16000   0.16000
     Eigenvalues ---    0.16000   0.16000   0.16000   0.16000   0.16000
     Eigenvalues ---    0.16000   0.16000   0.19138   0.22098   0.23222
     Eigenvalues ---    0.23817   0.24138   0.24155   0.24937   0.25000
     Eigenvalues ---    0.34416   0.34430   0.34526   0.34528   0.34531
     Eigenvalues ---    0.34535   0.34798   0.35473   0.35719   0.35963
     Eigenvalues ---    0.35982   0.38831   0.43262   0.44077   0.45338
     Eigenvalues ---    0.46095   0.46216   0.50689   0.52500   0.55840
     Eigenvalues ---    0.56642   0.90537
 RFO step:  Lambda= 0.00000000D+00 EMin= 2.30000000D-03
 Linear search not attempted -- first point.
 Iteration  1 RMS(Cart)=  0.00023809 RMS(Int)=  0.00000001
 Iteration  2 RMS(Cart)=  0.00000002 RMS(Int)=  0.00000000
 Variable       Old X    -DE/DX   Delta X   Delta X   Delta X     New X
                                 (Linear)    (Quad)   (Total)
    R1        2.65332  -0.00000   0.00000  -0.00000  -0.00000   2.65332
    R2        2.30867   0.00000   0.00000   0.00000   0.00000   2.30867
    R3        2.61678  -0.00000   0.00000  -0.00000  -0.00000   2.61677
    R4        2.56946  -0.00000   0.00000  -0.00000  -0.00000   2.56946
    R5        2.04523  -0.00000   0.00000  -0.00000  -0.00000   2.04523
    R6        2.70887   0.00000   0.00000   0.00000   0.00000   2.70887
    R7        2.56435   0.00000   0.00000   0.00000   0.00000   2.56435
    R8        2.04914  -0.00000   0.00000  -0.00000  -0.00000   2.04914
    R9        1.91585   0.00000   0.00000   0.00000   0.00000   1.91585
   R10        3.95257   0.00000   0.00000   0.00001   0.00001   3.95258
   R11        2.52715  -0.00000   0.00000  -0.00000  -0.00000   2.52715
   R12        3.93703   0.00000   0.00000   0.00001   0.00001   3.93704
   R13        2.54393   0.00000   0.00000   0.00000   0.00000   2.54393
   R14        1.90588  -0.00000   0.00000  -0.00000  -0.00000   1.90588
   R15        1.90725  -0.00000   0.00000  -0.00000  -0.00000   1.90725
   R16        3.45151  -0.00000   0.00000  -0.00001  -0.00001   3.45150
   R17        4.47559   0.00000   0.00000   0.00000   0.00000   4.47559
   R18        3.45107   0.00000   0.00000   0.00000   0.00000   3.45107
   R19        2.06437  -0.00000   0.00000  -0.00000  -0.00000   2.06437
   R20        2.06611  -0.00000   0.00000  -0.00001  -0.00001   2.06610
   R21        2.06452  -0.00000   0.00000  -0.00000  -0.00000   2.06452
   R22        2.04245  -0.00001   0.00000  -0.00002  -0.00002   2.04243
   R23        2.04110  -0.00000   0.00000  -0.00000  -0.00000   2.04110
   R24        2.04139  -0.00000   0.00000  -0.00001  -0.00001   2.04138
   R25        2.06443  -0.00000   0.00000  -0.00000  -0.00000   2.06443
   R26        2.06449  -0.00000   0.00000  -0.00000  -0.00000   2.06449
   R27        2.06634  -0.00000   0.00000  -0.00000  -0.00000   2.06634
    A1        2.10134   0.00000   0.00000   0.00000   0.00000   2.10134
    A2        2.02100   0.00000   0.00000   0.00000   0.00000   2.02100
    A3        2.16085  -0.00000   0.00000  -0.00000  -0.00000   2.16085
    A4        2.11985  -0.00000   0.00000  -0.00000  -0.00000   2.11985
    A5        2.04432  -0.00000   0.00000  -0.00000  -0.00000   2.04432
    A6        2.11902   0.00000   0.00000   0.00000   0.00000   2.11902
    A7        2.10086  -0.00000   0.00000  -0.00000  -0.00000   2.10086
    A8        2.14652   0.00000   0.00000   0.00000   0.00000   2.14652
    A9        2.03581   0.00000   0.00000   0.00000   0.00000   2.03581
   A10        2.15336  -0.00000   0.00000  -0.00000  -0.00000   2.15336
   A11        2.01017   0.00000   0.00000   0.00000   0.00000   2.01017
   A12        2.11965  -0.00000   0.00000  -0.00000  -0.00000   2.11965
   A13        1.59209  -0.00000   0.00000   0.00000   0.00000   1.59209
   A14        2.12417   0.00000   0.00000  -0.00000  -0.00000   2.12417
   A15        1.91287  -0.00000   0.00000  -0.00000  -0.00000   1.91287
   A16        2.24614   0.00000   0.00000   0.00000   0.00000   2.24615
   A17        2.12266   0.00000   0.00000   0.00000   0.00000   2.12266
   A18        2.08653   0.00000   0.00000   0.00000   0.00000   2.08653
   A19        2.07400  -0.00000   0.00000  -0.00000  -0.00000   2.07400
   A20        2.11979   0.00000   0.00000   0.00000   0.00000   2.11979
   A21        2.11147   0.00000   0.00000   0.00000   0.00000   2.11147
   A22        2.05185  -0.00000   0.00000  -0.00000  -0.00000   2.05185
   A23        1.73655   0.00000   0.00000   0.00001   0.00001   1.73656
   A24        1.76006   0.00000   0.00000   0.00001   0.00001   1.76007
   A25        1.73880  -0.00000   0.00000   0.00000   0.00000   1.73880
   A26        1.87531  -0.00000   0.00000  -0.00000  -0.00000   1.87531
   A27        1.93600   0.00000   0.00000   0.00000   0.00000   1.93601
   A28        1.90691  -0.00000   0.00000  -0.00000  -0.00000   1.90690
   A29        1.91838  -0.00000   0.00000  -0.00000  -0.00000   1.91837
   A30        1.90231   0.00000   0.00000  -0.00000  -0.00000   1.90231
   A31        1.92402   0.00000   0.00000   0.00000   0.00000   1.92402
   A32        1.46495   0.00000   0.00000   0.00000   0.00000   1.46496
   A33        1.59062  -0.00000   0.00000  -0.00000  -0.00000   1.59061
   A34        1.59355   0.00000   0.00000   0.00000   0.00000   1.59355
   A35        1.58724   0.00000   0.00000   0.00001   0.00001   1.58725
   A36        1.59433  -0.00000   0.00000  -0.00000  -0.00000   1.59432
   A37        1.59465  -0.00000   0.00000  -0.00001  -0.00001   1.59465
   A38        2.09657   0.00000   0.00000   0.00000   0.00000   2.09658
   A39        2.09740   0.00000   0.00000   0.00000   0.00000   2.09741
   A40        2.08686  -0.00000   0.00000  -0.00001  -0.00001   2.08685
   A41        2.29366   0.00000   0.00000   0.00000   0.00000   2.29366
   A42        1.87557   0.00000   0.00000   0.00000   0.00000   1.87557
   A43        1.90711  -0.00000   0.00000  -0.00000  -0.00000   1.90711
   A44        1.93649  -0.00000   0.00000  -0.00000  -0.00000   1.93649
   A45        1.90171   0.00000   0.00000   0.00000   0.00000   1.90171
   A46        1.91884   0.00000   0.00000  -0.00000  -0.00000   1.91884
   A47        1.92321   0.00000   0.00000   0.00000   0.00000   1.92321
   A48        3.05219   0.00000   0.00000   0.00002   0.00002   3.05221
   A49        3.14345  -0.00000   0.00000  -0.00000  -0.00000   3.14345
    D1       -3.13857  -0.00000   0.00000  -0.00001  -0.00001  -3.13858
    D2        0.00086  -0.00000   0.00000  -0.00001  -0.00001   0.00085
    D3        0.00305  -0.00000   0.00000  -0.00001  -0.00001   0.00304
    D4       -3.14071  -0.00000   0.00000  -0.00001  -0.00001  -3.14072
    D5        3.13482  -0.00000   0.00000   0.00001   0.00001   3.13482
    D6       -0.00680  -0.00000   0.00000   0.00001   0.00001  -0.00680
    D7       -0.00190   0.00000   0.00000   0.00001   0.00001  -0.00189
    D8        3.13888   0.00000   0.00000   0.00001   0.00001   3.13890
    D9        3.13972   0.00000   0.00000   0.00001   0.00001   3.13973
   D10       -0.00269   0.00000   0.00000   0.00002   0.00002  -0.00267
   D11       -3.14109   0.00000   0.00000   0.00000   0.00000  -3.14109
   D12        0.00005   0.00000   0.00000   0.00000   0.00000   0.00005
   D13       -0.00078   0.00000   0.00000   0.00000   0.00000  -0.00078
   D14        3.14036   0.00000   0.00000   0.00000   0.00000   3.14036
   D15        0.00188   0.00000   0.00000  -0.00000  -0.00000   0.00187
   D16       -3.13999   0.00000   0.00000  -0.00000  -0.00000  -3.13999
   D17       -3.14100   0.00000   0.00000   0.00000   0.00000  -3.14100
   D18        0.00032   0.00000   0.00000   0.00000   0.00000   0.00032
   D19       -0.00171   0.00000   0.00000   0.00000   0.00000  -0.00171
   D20       -3.14101   0.00000   0.00000  -0.00000  -0.00000  -3.14101
   D21        3.14031  -0.00000   0.00000   0.00000   0.00000   3.14031
   D22        0.00101   0.00000   0.00000  -0.00000  -0.00000   0.00101
   D23        0.03020  -0.00000   0.00000  -0.00006  -0.00006   0.03014
   D24       -0.00047  -0.00000   0.00000  -0.00001  -0.00001  -0.00047
   D25        3.14139  -0.00000   0.00000  -0.00001  -0.00001   3.14139
   D26       -3.14108  -0.00000   0.00000  -0.00001  -0.00001  -3.14109
   D27        0.00078  -0.00000   0.00000  -0.00001  -0.00001   0.00077
   D28        0.01877  -0.00000   0.00000  -0.00004  -0.00004   0.01873
   D29       -2.07875  -0.00000   0.00000  -0.00005  -0.00005  -2.07879
   D30        2.11680  -0.00000   0.00000  -0.00004  -0.00004   2.11676
   D31       -3.12371  -0.00000   0.00000  -0.00004  -0.00004  -3.12375
   D32        1.06196  -0.00000   0.00000  -0.00004  -0.00004   1.06192
   D33       -1.02568   0.00000   0.00000  -0.00004  -0.00004  -1.02571
   D34        3.13265  -0.00000   0.00000  -0.00000  -0.00000   3.13264
   D35        0.00429   0.00000   0.00000   0.00000   0.00000   0.00429
   D36       -0.00921  -0.00000   0.00000  -0.00000  -0.00000  -0.00921
   D37       -3.13757   0.00000   0.00000   0.00000   0.00000  -3.13756
   D38       -1.33715  -0.00000   0.00000  -0.00003  -0.00003  -1.33718
   D39        0.76006  -0.00000   0.00000  -0.00003  -0.00003   0.76002
   D40        2.88460   0.00000   0.00000  -0.00003  -0.00003   2.88457
   D41       -3.11406  -0.00000   0.00000  -0.00004  -0.00004  -3.11410
   D42       -1.01686  -0.00000   0.00000  -0.00004  -0.00004  -1.01690
   D43        1.10769   0.00000   0.00000  -0.00004  -0.00004   1.10765
   D44       -0.82941  -0.00000   0.00000  -0.00032  -0.00032  -0.82972
   D45        1.26785  -0.00000   0.00000  -0.00031  -0.00031   1.26754
   D46       -2.92751  -0.00000   0.00000  -0.00032  -0.00032  -2.92783
   D47        0.96510  -0.00000   0.00000  -0.00030  -0.00030   0.96480
   D48        3.06236   0.00000   0.00000  -0.00030  -0.00030   3.06206
   D49       -1.13301  -0.00000   0.00000  -0.00030  -0.00030  -1.13331
   D50        3.11973   0.00000   0.00000   0.00004   0.00004   3.11977
   D51       -1.10247   0.00000   0.00000   0.00004   0.00004  -1.10244
   D52        1.02151   0.00000   0.00000   0.00004   0.00004   1.02155
   D53        1.34463  -0.00000   0.00000   0.00003   0.00003   1.34466
   D54       -2.87757  -0.00000   0.00000   0.00003   0.00003  -2.87755
   D55       -0.75359  -0.00000   0.00000   0.00003   0.00003  -0.75356
   D56       -0.02561   0.00000   0.00000   0.00005   0.00005  -0.02556
   D57        3.11412   0.00000   0.00000   0.00006   0.00006   3.11418
   D58        1.50657   0.00000   0.00000   0.00005   0.00005   1.50662
   D59       -1.56110  -0.00000   0.00000   0.00005   0.00005  -1.56105
         Item               Value     Threshold  Converged?
 Maximum Force            0.000005     0.000450     YES
 RMS     Force            0.000001     0.000300     YES
 Maximum Displacement     0.000807     0.001800     YES
 RMS     Displacement     0.000238     0.001200     YES
 Predicted change in Energy=-8.852648D-10
 Optimization completed.
    -- Stationary point found.
                           ----------------------------
                           !   Optimized Parameters   !
                           ! (Angstroms and Degrees)  !
 --------------------------                            --------------------------
 ! Name  Definition              Value          Derivative Info.                !
 --------------------------------------------------------------------------------
 ! R1    R(1,4)                  1.4041         -DE/DX =    0.0                 !
 ! R2    R(1,7)                  1.2217         -DE/DX =    0.0                 !
 ! R3    R(1,8)                  1.3847         -DE/DX =    0.0                 !
 ! R4    R(2,3)                  1.3597         -DE/DX =    0.0                 !
 ! R5    R(2,5)                  1.0823         -DE/DX =    0.0                 !
 ! R6    R(2,9)                  1.4335         -DE/DX =    0.0                 !
 ! R7    R(3,4)                  1.357          -DE/DX =    0.0                 !
 ! R8    R(3,6)                  1.0844         -DE/DX =    0.0                 !
 ! R9    R(4,13)                 1.0138         -DE/DX =    0.0                 !
 ! R10   R(7,20)                 2.0916         -DE/DX =    0.0                 !
 ! R11   R(8,9)                  1.3373         -DE/DX =    0.0                 !
 ! R12   R(8,19)                 2.0834         -DE/DX =    0.0                 !
 ! R13   R(9,10)                 1.3462         -DE/DX =    0.0                 !
 ! R14   R(10,11)                1.0085         -DE/DX =    0.0                 !
 ! R15   R(10,12)                1.0093         -DE/DX =    0.0                 !
 ! R16   R(14,15)                1.8265         -DE/DX =    0.0                 !
 ! R17   R(14,19)                2.3684         -DE/DX =    0.0                 !
 ! R18   R(14,23)                1.8262         -DE/DX =    0.0                 !
 ! R19   R(15,16)                1.0924         -DE/DX =    0.0                 !
 ! R20   R(15,17)                1.0933         -DE/DX =    0.0                 !
 ! R21   R(15,18)                1.0925         -DE/DX =    0.0                 !
 ! R22   R(19,20)                1.0808         -DE/DX =    0.0                 !
 ! R23   R(19,21)                1.0801         -DE/DX =    0.0                 !
 ! R24   R(19,22)                1.0803         -DE/DX =    0.0                 !
 ! R25   R(23,24)                1.0925         -DE/DX =    0.0                 !
 ! R26   R(23,25)                1.0925         -DE/DX =    0.0                 !
 ! R27   R(23,26)                1.0935         -DE/DX =    0.0                 !
 ! A1    A(4,1,7)              120.3978         -DE/DX =    0.0                 !
 ! A2    A(4,1,8)              115.7948         -DE/DX =    0.0                 !
 ! A3    A(7,1,8)              123.8074         -DE/DX =    0.0                 !
 ! A4    A(3,2,5)              121.4584         -DE/DX =    0.0                 !
 ! A5    A(3,2,9)              117.1307         -DE/DX =    0.0                 !
 ! A6    A(5,2,9)              121.4109         -DE/DX =    0.0                 !
 ! A7    A(2,3,4)              120.3705         -DE/DX =    0.0                 !
 ! A8    A(2,3,6)              122.9863         -DE/DX =    0.0                 !
 ! A9    A(4,3,6)              116.6433         -DE/DX =    0.0                 !
 ! A10   A(1,4,3)              123.3786         -DE/DX =    0.0                 !
 ! A11   A(1,4,13)             115.1741         -DE/DX =    0.0                 !
 ! A12   A(3,4,13)             121.4472         -DE/DX =    0.0                 !
 ! A13   A(1,7,20)              91.2202         -DE/DX =    0.0                 !
 ! A14   A(1,8,9)              121.7059         -DE/DX =    0.0                 !
 ! A15   A(1,8,19)             109.5995         -DE/DX =    0.0                 !
 ! A16   A(9,8,19)             128.6946         -DE/DX =    0.0                 !
 ! A17   A(2,9,8)              121.6192         -DE/DX =    0.0                 !
 ! A18   A(2,9,10)             119.5495         -DE/DX =    0.0                 !
 ! A19   A(8,9,10)             118.8313         -DE/DX =    0.0                 !
 ! A20   A(9,10,11)            121.4551         -DE/DX =    0.0                 !
 ! A21   A(9,10,12)            120.9784         -DE/DX =    0.0                 !
 ! A22   A(11,10,12)           117.5624         -DE/DX =    0.0                 !
 ! A23   A(15,14,19)            99.4972         -DE/DX =    0.0                 !
 ! A24   A(15,14,23)           100.844          -DE/DX =    0.0                 !
 ! A25   A(19,14,23)            99.6258         -DE/DX =    0.0                 !
 ! A26   A(14,15,16)           107.4472         -DE/DX =    0.0                 !
 ! A27   A(14,15,17)           110.9249         -DE/DX =    0.0                 !
 ! A28   A(14,15,18)           109.2576         -DE/DX =    0.0                 !
 ! A29   A(16,15,17)           109.9148         -DE/DX =    0.0                 !
 ! A30   A(16,15,18)           108.9942         -DE/DX =    0.0                 !
 ! A31   A(17,15,18)           110.238          -DE/DX =    0.0                 !
 ! A32   A(8,19,20)             83.9357         -DE/DX =    0.0                 !
 ! A33   A(8,19,21)             91.1357         -DE/DX =    0.0                 !
 ! A34   A(8,19,22)             91.3035         -DE/DX =    0.0                 !
 ! A35   A(14,19,20)            90.942          -DE/DX =    0.0                 !
 ! A36   A(14,19,21)            91.3482         -DE/DX =    0.0                 !
 ! A37   A(14,19,22)            91.367          -DE/DX =    0.0                 !
 ! A38   A(20,19,21)           120.1247         -DE/DX =    0.0                 !
 ! A39   A(20,19,22)           120.1725         -DE/DX =    0.0                 !
 ! A40   A(21,19,22)           119.5682         -DE/DX =    0.0                 !
 ! A41   A(7,20,19)            131.4168         -DE/DX =    0.0                 !
 ! A42   A(14,23,24)           107.462          -DE/DX =    0.0                 !
 ! A43   A(14,23,25)           109.2691         -DE/DX =    0.0                 !
 ! A44   A(14,23,26)           110.9526         -DE/DX =    0.0                 !
 ! A45   A(24,23,25)           108.9601         -DE/DX =    0.0                 !
 ! A46   A(24,23,26)           109.9415         -DE/DX =    0.0                 !
 ! A47   A(25,23,26)           110.1919         -DE/DX =    0.0                 !
 ! A48   L(8,19,14,20,-1)      174.8777         -DE/DX =    0.0                 !
 ! A49   L(8,19,14,20,-2)      180.1064         -DE/DX =    0.0                 !
 ! D1    D(7,1,4,3)           -179.8267         -DE/DX =    0.0                 !
 ! D2    D(7,1,4,13)             0.0492         -DE/DX =    0.0                 !
 ! D3    D(8,1,4,3)              0.1745         -DE/DX =    0.0                 !
 ! D4    D(8,1,4,13)          -179.9495         -DE/DX =    0.0                 !
 ! D5    D(4,1,7,20)           179.6117         -DE/DX =    0.0                 !
 ! D6    D(8,1,7,20)            -0.3897         -DE/DX =    0.0                 !
 ! D7    D(4,1,8,9)             -0.1086         -DE/DX =    0.0                 !
 ! D8    D(4,1,8,19)           179.8448         -DE/DX =    0.0                 !
 ! D9    D(7,1,8,9)            179.8927         -DE/DX =    0.0                 !
 ! D10   D(7,1,8,19)            -0.1539         -DE/DX =    0.0                 !
 ! D11   D(5,2,3,4)           -179.9712         -DE/DX =    0.0                 !
 ! D12   D(5,2,3,6)              0.0026         -DE/DX =    0.0                 !
 ! D13   D(9,2,3,4)             -0.0447         -DE/DX =    0.0                 !
 ! D14   D(9,2,3,6)            179.9291         -DE/DX =    0.0                 !
 ! D15   D(3,2,9,8)              0.1074         -DE/DX =    0.0                 !
 ! D16   D(3,2,9,10)          -179.9082         -DE/DX =    0.0                 !
 ! D17   D(5,2,9,8)           -179.966          -DE/DX =    0.0                 !
 ! D18   D(5,2,9,10)             0.0184         -DE/DX =    0.0                 !
 ! D19   D(2,3,4,1)             -0.0982         -DE/DX =    0.0                 !
 ! D20   D(2,3,4,13)          -179.9666         -DE/DX =    0.0                 !
 ! D21   D(6,3,4,1)            179.9264         -DE/DX =    0.0                 !
 ! D22   D(6,3,4,13)             0.058          -DE/DX =    0.0                 !
 ! D23   D(1,7,20,19)            1.7304         -DE/DX =    0.0                 !
 ! D24   D(1,8,9,2)             -0.0268         -DE/DX =    0.0                 !
 ! D25   D(1,8,9,10)           179.9887         -DE/DX =    0.0                 !
 ! D26   D(19,8,9,2)          -179.9706         -DE/DX =    0.0                 !
 ! D27   D(19,8,9,10)            0.0449         -DE/DX =    0.0                 !
 ! D28   D(1,8,19,20)            1.0755         -DE/DX =    0.0                 !
 ! D29   D(1,8,19,21)         -119.1034         -DE/DX =    0.0                 !
 ! D30   D(1,8,19,22)          121.2839         -DE/DX =    0.0                 !
 ! D31   D(9,8,19,20)         -178.9753         -DE/DX =    0.0                 !
 ! D32   D(9,8,19,21)           60.8458         -DE/DX =    0.0                 !
 ! D33   D(9,8,19,22)          -58.7669         -DE/DX =    0.0                 !
 ! D34   D(2,9,10,11)          179.4874         -DE/DX =    0.0                 !
 ! D35   D(2,9,10,12)            0.2459         -DE/DX =    0.0                 !
 ! D36   D(8,9,10,11)           -0.5278         -DE/DX =    0.0                 !
 ! D37   D(8,9,10,12)         -179.7693         -DE/DX =    0.0                 !
 ! D38   D(19,14,15,16)        -76.6129         -DE/DX =    0.0                 !
 ! D39   D(19,14,15,17)         43.548          -DE/DX =    0.0                 !
 ! D40   D(19,14,15,18)        165.2755         -DE/DX =    0.0                 !
 ! D41   D(23,14,15,16)       -178.4227         -DE/DX =    0.0                 !
 ! D42   D(23,14,15,17)        -58.2618         -DE/DX =    0.0                 !
 ! D43   D(23,14,15,18)         63.4657         -DE/DX =    0.0                 !
 ! D44   D(15,14,19,20)        -47.5214         -DE/DX =    0.0                 !
 ! D45   D(15,14,19,21)         72.6426         -DE/DX =    0.0                 !
 ! D46   D(15,14,19,22)       -167.7339         -DE/DX =    0.0                 !
 ! D47   D(23,14,19,20)         55.296          -DE/DX =    0.0                 !
 ! D48   D(23,14,19,21)        175.4601         -DE/DX =    0.0                 !
 ! D49   D(23,14,19,22)        -64.9164         -DE/DX =    0.0                 !
 ! D50   D(15,14,23,24)        178.7473         -DE/DX =    0.0                 !
 ! D51   D(15,14,23,25)        -63.1671         -DE/DX =    0.0                 !
 ! D52   D(15,14,23,26)         58.5283         -DE/DX =    0.0                 !
 ! D53   D(19,14,23,24)         77.0415         -DE/DX =    0.0                 !
 ! D54   D(19,14,23,25)       -164.8729         -DE/DX =    0.0                 !
 ! D55   D(19,14,23,26)        -43.1775         -DE/DX =    0.0                 !
 ! D56   D(8,19,20,7)           -1.4676         -DE/DX =    0.0                 !
 ! D57   D(14,19,20,7)         178.4261         -DE/DX =    0.0                 !
 ! D58   D(21,19,20,7)          86.3201         -DE/DX =    0.0                 !
 ! D59   D(22,19,20,7)         -89.4445         -DE/DX =    0.0                 !
 --------------------------------------------------------------------------------
 GradGradGradGradGradGradGradGradGradGradGradGradGradGradGradGradGradGrad

                          Input orientation:                          
 ---------------------------------------------------------------------
 Center     Atomic      Atomic             Coordinates (Angstroms)
 Number     Number       Type             X           Y           Z
 ---------------------------------------------------------------------
      1          6           0       -0.705289    1.465521    0.789358
      2          6           0       -3.077944    1.616717   -0.721510
      3          6           0       -2.826766    2.526469    0.257288
      4          7           0       -1.683257    2.453955    0.984314
      5          1           0       -3.983837    1.658235   -1.312255
      6          1           0       -3.507427    3.334677    0.500871
      7          8           0        0.303621    1.449774    1.478115
      8          7           0       -0.969843    0.545085   -0.210796
      9          6           0       -2.090318    0.600709   -0.938701
     10          7           0       -2.288557   -0.323864   -1.896875
     11          1           0       -1.609342   -1.046751   -2.079277
     12          1           0       -3.120894   -0.310373   -2.467544
     13          1           0       -1.479693    3.123222    1.718130
     14         16           0        2.474362   -2.266306   -0.321806
     15          6           0        3.811926   -1.024148   -0.259181
     16          1           0        3.913493   -0.601385   -1.261344
     17          1           0        3.576234   -0.232299    0.456930
     18          1           0        4.747874   -1.516029    0.015775
     19          6           0        0.598650   -0.820380   -0.336640
     20          1           0        1.009399   -0.250011    0.484412
     21          1           0        0.801357   -0.526253   -1.355964
     22          1           0       -0.071363   -1.645350   -0.143079
     23          6           0        2.427702   -2.809134    1.421255
     24          1           0        1.632280   -3.552459    1.511931
     25          1           0        3.381069   -3.276197    1.679048
     26          1           0        2.227959   -1.965939    2.088170
 ---------------------------------------------------------------------
                    Distance matrix (angstroms):
                    1          2          3          4          5
     1  C    0.000000
     2  C    2.816926   0.000000
     3  C    2.430920   1.359700   0.000000
     4  N    1.404077   2.357107   1.356996   0.000000
     5  H    3.899076   1.082287   2.134504   3.346650   0.000000
     6  H    3.380672   2.151757   1.084358   2.082543   2.514925
     7  O    1.221693   4.037475   3.528316   2.280330   5.119757
     8  N    1.384738   2.419362   2.755567   2.362421   3.396539
     9  C    2.377476   1.433475   2.383547   2.701519   2.200754
    10  N    3.595064   2.402180   3.613099   4.047705   2.672914
    11  H    3.918914   3.330823   4.439545   4.652526   3.680149
    12  H    4.426777   2.600799   3.944476   4.650122   2.440242
    13  H    2.051900   3.282652   2.074796   1.013826   4.195254
    14  S    5.027067   6.787174   7.169937   6.424376   7.621768
    15  C    5.263375   7.393120   7.546248   6.621217   8.311321
    16  H    5.459911   7.354698   7.584247   6.760303   8.214396
    17  H    4.617850   7.006116   6.974888   5.929278   7.991171
    18  H    6.262991   8.461744   8.589254   7.619599   9.385222
    19  C    2.862424   4.427743   4.825725   4.203961   5.300429
    20  H    2.444626   4.652450   4.740948   3.848601   5.639310
    21  H    3.292348   4.477033   5.008490   4.531208   5.260416
    22  H    3.308900   4.473834   5.015637   4.546814   5.252437
    23  C    5.337378   7.381852   7.578451   6.692608   8.278725
    24  H    5.582693   7.341311   7.642682   6.881001   8.165055
    25  H    6.322480   8.451162   8.615657   7.678847   9.356193
    26  H    4.697422   6.991590   7.006005   6.004296   7.955120
                    6          7          8          9         10
     6  H    0.000000
     7  O    4.362563   0.000000
     8  N    3.837659   2.300564   0.000000
     9  C    3.399286   3.506117   1.337312   0.000000
    10  N    4.540898   4.610394   2.310182   1.346191   0.000000
    11  H    5.427412   4.748379   2.536557   2.060674   1.008548
    12  H    4.716703   5.513043   3.232915   2.056579   1.009272
    13  H    2.374476   2.457284   3.259984   3.714120   5.060131
    14  S    8.235873   4.664878   4.447335   5.425554   5.379528
    15  C    8.552775   4.631057   5.032907   6.159415   6.355182
    16  H    8.583009   4.974240   5.124940   6.131466   6.240700
    17  H    7.931173   3.818663   4.660150   5.895040   6.320171
    18  H    9.587213   5.539477   6.082090   7.221667   7.388562
    19  C    5.901338   2.921297   2.083387   3.100406   3.319160
    20  H    5.766453   2.091611   2.243411   3.515284   4.068476
    21  H    6.076202   3.490620   2.365655   3.131443   3.143424
    22  H    6.084560   3.514068   2.368514   3.123135   3.120589
    23  C    8.591815   4.759543   5.045561   6.132612   6.279304
    24  H    8.652830   5.175791   5.150602   6.091973   6.116923
    25  H    9.619934   5.643214   6.091317   7.198547   7.324490
    26  H    7.969360   3.967662   4.670805   5.864908   6.243069
                   11         12         13         14         15
    11  H    0.000000
    12  H    1.725628   0.000000
    13  H    5.641435   5.657118   0.000000
    14  S    4.610060   6.303710   6.988770   0.000000
    15  C    5.718689   7.310974   7.007972   1.826460   0.000000
    16  H    5.600810   7.142983   7.199751   2.392863   1.092417
    17  H    5.829741   7.308226   6.197785   2.440847   1.093339
    18  H    6.709967   8.338944   7.950047   2.417795   1.092495
    19  C    2.821924   4.316928   4.908522   2.368379   3.220662
    20  H    3.750347   5.077106   4.369936   2.619456   3.001063
    21  H    2.570130   4.082434   5.288848   2.626064   3.242585
    22  H    2.544123   4.060165   5.309122   2.626451   3.934375
    23  C    5.626495   7.221737   7.109762   1.826226   2.815336
    24  H    5.448253   6.995713   7.368284   2.392882   3.778895
    25  H    6.633222   8.262316   8.036237   2.417729   3.002348
    26  H    5.739111   7.218425   6.307390   2.441090   2.984289
                   16         17         18         19         20
    16  H    0.000000
    17  H    1.789534   0.000000
    18  H    1.778707   1.793132   0.000000
    19  C    3.448365   3.137132   4.221870   0.000000
    20  H    3.406595   2.567043   3.974747   1.080815   0.000000
    21  H    3.114480   3.327602   4.293754   1.080103   1.872585
    22  H    4.268426   3.957485   4.823588   1.080259   1.873169
    23  C    3.778633   2.981464   3.005111   3.223472   3.072193
    24  H    4.647991   3.989417   4.011540   3.456857   3.514248
    25  H    4.010486   3.285875   2.780796   4.223256   4.026137
    26  H    3.990273   2.735744   3.293511   3.137938   2.646004
                   21         22         23         24         25
    21  H    0.000000
    22  H    1.866844   0.000000
    23  C    3.945819   3.169678   0.000000
    24  H    4.251256   3.046067   1.092452   0.000000
    25  H    4.840290   4.230732   1.092481   1.778345   0.000000
    26  H    3.996242   3.219958   1.093458   1.789953   1.792713
                   26
    26  H    0.000000
 Symmetry turned off by external request.
 Stoichiometry    C7H14N3OS(1+)
 Framework group  C1[X(C7H14N3OS)]
 Deg. of freedom    72
 Full point group                 C1      NOp   1
 Rotational constants (GHZ):      1.4665567      0.3458361      0.3024480
 1\1\GINC-CDR459\FOpt\RB3LYP\6-31G(d)\C7H14N3O1S1(1+)\ENAS93\08-Oct-202
 0\0\\# opt freq b3lyp/6-31g(d) nosymm\\Title Card Required\\1,1\C,-0.7
 0528871,1.46552062,0.78935792\C,-3.07794371,1.61671662,-0.72151008\C,-
 2.82676571,2.52646862,0.25728792\N,-1.68325671,2.45395462,0.98431392\H
 ,-3.98383671,1.65823462,-1.31225508\H,-3.50742671,3.33467662,0.5008709
 2\O,0.30362129,1.44977362,1.47811492\N,-0.96984271,0.54508462,-0.21079
 608\C,-2.09031771,0.60070862,-0.93870108\N,-2.28855671,-0.32386438,-1.
 89687508\H,-1.60934171,-1.04675138,-2.07927708\H,-3.12089371,-0.310373
 38,-2.46754408\H,-1.47969271,3.12322162,1.71812992\S,2.47436229,-2.266
 30638,-0.32180608\C,3.81192629,-1.02414838,-0.25918108\H,3.91349329,-0
 .60138538,-1.26134408\H,3.57623429,-0.23229938,0.45692992\H,4.74787429
 ,-1.51602938,0.01577492\C,0.59865029,-0.82038038,-0.33664008\H,1.00939
 929,-0.25001138,0.48441192\H,0.80135729,-0.52625338,-1.35596408\H,-0.0
 7136271,-1.64535038,-0.14307908\C,2.42770229,-2.80913438,1.42125492\H,
 1.63228029,-3.55245938,1.51193092\H,3.38106929,-3.27619738,1.67904792\
 H,2.22795929,-1.96593938,2.08816992\\Version=EM64L-G09RevE.01\HF=-912.
 6051697\RMSD=3.321e-09\RMSF=1.953e-06\Dipole=-1.0102422,-0.2046474,-0.
 8293086\Quadrupole=13.3868689,-1.4063258,-11.9805431,-17.4515437,6.362
 7535,1.1139264\PG=C01 [X(C7H14N3O1S1)]\\@


 You don't have to suffer to be a poet.
 Adolescence is enough suffering for anyone.
                             -- John Ciardi
 Job cpu time:       0 days  0 hours  3 minutes 25.5 seconds.
 File lengths (MBytes):  RWF=     20 Int=      0 D2E=      0 Chk=      4 Scr=      1
 Normal termination of Gaussian 09 at Thu Oct  8 00:01:28 2020.
 Link1:  Proceeding to internal job step number  2.
 --------------------------------------------------------------------
 #N Geom=AllCheck Guess=TCheck SCRF=Check GenChk RB3LYP/6-31G(d) Freq
 --------------------------------------------------------------------
 1/10=4,29=7,30=1,38=1,40=1/1,3;
 2/12=2,15=1,40=1/2;
 3/5=1,6=6,7=1,11=2,14=-4,16=1,25=1,30=1,70=2,71=2,74=-5,116=1,140=1/1,2,3;
 4/5=101/1;
 5/5=2,38=6,98=1/2;
 8/6=4,10=90,11=11/1;
 11/6=1,8=1,9=11,15=111,16=1,31=1/1,2,10;
 10/6=1,31=1/2;
 6/7=2,8=2,9=2,10=2,18=1,28=1/1;
 7/8=1,10=1,25=1,30=1/1,2,3,16;
 1/10=4,30=1/3;
 99//99;
 Structure from the checkpoint file:  "/localscratch/enas93.52313769.0/Gau-6867.chk"
 -------------------
 Title Card Required
 -------------------
 Charge =  1 Multiplicity = 1
 Redundant internal coordinates found in file.
 C,0,-0.70528871,1.46552062,0.78935792
 C,0,-3.07794371,1.61671662,-0.72151008
 C,0,-2.82676571,2.52646862,0.25728792
 N,0,-1.68325671,2.45395462,0.98431392
 H,0,-3.98383671,1.65823462,-1.31225508
 H,0,-3.50742671,3.33467662,0.50087092
 O,0,0.30362129,1.44977362,1.47811492
 N,0,-0.96984271,0.54508462,-0.21079608
 C,0,-2.09031771,0.60070862,-0.93870108
 N,0,-2.28855671,-0.32386438,-1.89687508
 H,0,-1.60934171,-1.04675138,-2.07927708
 H,0,-3.12089371,-0.31037338,-2.46754408
 H,0,-1.47969271,3.12322162,1.71812992
 S,0,2.47436229,-2.26630638,-0.32180608
 C,0,3.81192629,-1.02414838,-0.25918108
 H,0,3.91349329,-0.60138538,-1.26134408
 H,0,3.57623429,-0.23229938,0.45692992
 H,0,4.74787429,-1.51602938,0.01577492
 C,0,0.59865029,-0.82038038,-0.33664008
 H,0,1.00939929,-0.25001138,0.48441192
 H,0,0.80135729,-0.52625338,-1.35596408
 H,0,-0.07136271,-1.64535038,-0.14307908
 C,0,2.42770229,-2.80913438,1.42125492
 H,0,1.63228029,-3.55245938,1.51193092
 H,0,3.38106929,-3.27619738,1.67904792
 H,0,2.22795929,-1.96593938,2.08816992
 Recover connectivity data from disk.

 GradGradGradGradGradGradGradGradGradGradGradGradGradGradGradGradGradGrad
 Berny optimization.
[...]
 2991,-0.00005798,0.00004628,-0.01098278,0.00108766,-0.00799597,0.02139
 576,-0.03391524,0.00010988,-0.01499571,-0.01410277,-0.02241637,0.00271
 875,0.00605848,0.00850638,0.00080028,-0.00134673,-0.00150566,-0.000926
 26,0.00032084,-0.00029829,0.00168744,-0.00052453,0.00064232,0.01980418
 ,-0.03809956,-0.00392494,-0.00705170,-0.00062023,0.00140089,0.00067288
 ,0.00046275,0.00008831,0.00172954,0.00241682,0.00026755,0.00037867,0.0
 0125263,0.00056683,0.22255924,-0.01355545,-0.01362001,-0.02080146,-0.0
 0421141,0.00161476,-0.00332345,-0.00131615,-0.00136314,-0.00182984,0.0
 0278590,0.00400937,0.00423980,-0.00095302,0.00148678,0.00034328,0.0000
 2505,-0.00009775,0.00018039,0.01242528,-0.00316400,0.00437069,-0.03776
 018,0.00238532,-0.00442709,0.00868926,0.01396923,0.01905972,-0.0041455
 3,-0.00469048,-0.00523464,0.00022494,0.00175468,0.00048629,0.00057161,
 -0.00013746,0.00029190,-0.00100209,0.00035615,-0.00046275,-0.02323360,
 -0.00202089,0.00453323,-0.00808915,0.00923461,-0.00263049,0.00004084,-
 0.00012215,-0.00007692,-0.00101306,-0.00042243,0.00031441,-0.00258016,
 -0.00411577,0.00009701,0.36988889,0.40584527,0.00421154,-0.00462721,-0
 .00196353,-0.00157859,-0.00081065,0.00024613,-0.00024395,-0.00014798,-
 0.00063263,-0.00028574,-0.00106405,0.00024422,-0.00025367,0.00013817,0
 .00030581,0.00012367,0.00012078,-0.00008705,0.00206102,-0.00341681,0.0
 0016537,-0.00309316,-0.00190557,-0.02596978,-0.00223976,0.00318189,0.0
 0047797,-0.00052432,0.00178940,-0.00064138,-0.00010552,-0.00054141,0.0
 0072900,-0.00011155,0.00017088,0.00001064,0.00021335,-0.00013253,0.000
 13049,0.01170350,-0.00704627,-0.02296204,-0.00068114,-0.00057544,0.000
 76017,0.00017775,-0.00014055,-0.00009667,-0.00073764,0.00037710,-0.000
 03977,-0.00009713,-0.00008197,0.00000396,0.00574980,0.00503727,0.69742
 436,-0.00704417,0.00196224,-0.00407674,-0.00058171,0.00010384,-0.00036
 261,-0.00037089,-0.00019884,-0.00051616,0.00112559,-0.00002358,0.00053
 798,-0.00013956,0.00023006,0.00008269,0.00004050,-0.00000768,0.0000384
 3,0.00185867,-0.00255451,0.00101860,-0.01565437,0.00538950,-0.00607225
 ,-0.00046127,0.00187624,0.00154211,-0.00027990,0.00035156,-0.00010229,
 0.00022517,-0.00008655,0.00052024,-0.00000456,0.00004859,0.00002231,-0
 .00010129,0.00012638,0.00005326,-0.01002109,0.01592262,0.00761442,0.00
 202814,0.00163356,0.00073643,-0.00012349,-0.00011966,-0.00003058,-0.00
 067727,-0.00111051,-0.00068479,0.00018667,-0.00040704,-0.00042516,-0.0
 7415484,-0.08611811,-0.09248360,0.10197387,0.01373516,-0.00011334,0.00
 830735,0.00049098,-0.00029336,-0.00001103,0.00096463,0.00064959,0.0011
 5133,-0.00360814,0.00109121,-0.00183236,0.00019935,-0.00025136,-0.0001
 2419,-0.00016017,-0.00000352,-0.00008740,-0.00682812,-0.00137435,-0.00
 364614,0.01045754,-0.00448172,0.00379279,0.00038523,-0.00178072,-0.001
 02973,0.00036615,-0.00051558,-0.00046771,-0.00070493,-0.00020147,-0.00
 010562,0.00009679,-0.00006063,-0.00000437,0.00026139,-0.00032422,-0.00
 009566,0.00651022,-0.00965399,-0.00393527,-0.00044329,0.00043888,0.000
 35278,-0.00000459,0.00002804,0.00002434,0.00032365,0.00057133,-0.00002
 505,-0.00007935,-0.00005612,0.00004859,-0.08994766,-0.12246119,-0.1260
 0608,0.06589768,0.13525572,0.00619441,0.00020918,0.00576815,-0.0000199
 2,-0.00026570,-0.00017137,0.00051880,0.00033247,0.00077504,-0.00260101
 ,0.00065800,-0.00091952,0.00005247,-0.00010086,-0.00001219,-0.00009467
 ,0.00001331,-0.00007459,-0.00263475,-0.00076035,-0.00530399,-0.0013242
 3,0.00006496,-0.00113854,0.00026293,0.00001441,-0.00012638,-0.00005820
 ,-0.00050367,-0.00017268,-0.00005488,0.00032632,-0.00037132,0.00007164
 ,-0.00004491,0.00003003,0.00016692,-0.00018250,-0.00006246,-0.00090024
 ,0.00252458,0.00149069,0.00056681,0.00062773,-0.00020054,0.00009451,-0
 .00008735,-0.00008242,0.00043040,-0.00017648,0.00018864,0.00002395,0.0
 0008567,0.00003035,-0.09582084,-0.12303063,-0.23894314,0.09919637,0.12
 762035,0.23803666,-0.00267502,-0.00030459,-0.00165397,-0.00012972,-0.0
 0002507,-0.00070997,0.00010228,-0.00004296,0.00010360,0.00044398,0.000
 59080,0.00023253,-0.00009796,0.00015491,-0.00001151,-0.00002636,-0.000
 04899,0.00004855,0.00090388,-0.00080133,0.00057371,-0.00994138,0.00484
 722,0.00717296,0.00051003,0.00245790,0.00376306,0.00036513,-0.00113342
 ,-0.00120420,-0.00152891,-0.00053886,0.00006495,0.00014913,-0.00012893
 ,-0.00016694,-0.00016593,0.00011224,-0.00004319,-0.00509420,0.00852599
 ,-0.00950385,0.00080451,0.00010996,-0.00019783,-0.00052929,-0.00016470
 ,0.00019612,-0.00021875,-0.00013179,-0.00015882,-0.00009162,-0.0002210
 3,0.00022121,-0.04169452,-0.03737782,0.05413215,0.00457245,0.00592768,
 -0.00905484,0.05723398,0.00199387,0.00008514,0.00047760,0.00012822,-0.
 00026280,0.00033595,0.00004846,0.00006207,0.00001918,-0.00028026,-0.00
 064480,-0.00039422,0.00005922,-0.00009662,0.00001414,0.00001950,0.0000
 1976,-0.00003119,-0.00025579,-0.00090378,-0.00021326,0.00733755,-0.003
 84306,-0.00768892,-0.00023697,-0.00081314,-0.00159405,0.00002733,0.000
 68620,0.00058201,-0.00030403,0.00013424,-0.00006747,-0.00003852,-0.000
 06630,-0.00006520,0.00017443,-0.00005405,0.00006194,0.00409482,-0.0066
 6428,0.00625445,-0.00034820,0.00007962,-0.00016878,0.00008370,0.000188
 63,0.00005218,0.00006952,0.00011388,-0.00005737,-0.00000831,-0.0000196
 0,0.00000578,-0.03592995,-0.06243089,0.08276994,0.00429226,0.00787279,
 -0.01271628,0.01830086,0.06947662,-0.00133362,-0.00019819,-0.00134231,
 0.00017781,0.00026058,-0.00012439,-0.00011704,-0.00000333,-0.00006810,
 0.00040622,0.00014131,-0.00000617,-0.00002533,0.00000721,-0.00001040,-
 0.00001045,-0.00003503,0.00004073,0.00095460,-0.00125447,0.00034427,-0
 .00128860,-0.00046377,0.00270098,0.00067977,0.00023143,0.00063683,0.00
 015774,-0.00054831,-0.00035626,-0.00027322,0.00000248,0.00028517,0.000
 01879,0.00006155,0.00002687,-0.00004519,0.00004941,0.00002410,-0.00117
 567,-0.00045850,0.00235510,-0.00045585,-0.00002549,-0.00006241,-0.0001
 0411,0.00005891,0.00011783,-0.00002924,0.00007398,-0.00008616,-0.00007
 350,-0.00009277,-0.00000742,0.05683114,0.08203551,-0.34069020,0.005429
 39,0.00941401,-0.01000233,-0.05935035,-0.08672290,0.34494596,-0.003064
 10,0.00021760,-0.00259505,-0.00056744,-0.00041081,0.00011845,0.0000222
 2,0.00000641,-0.00006194,0.00018442,0.00017390,0.00104999,-0.00014970,
 0.00008289,0.00004503,0.00005524,0.00005181,-0.00005693,0.00147772,-0.
 00039850,0.00028876,-0.00220805,0.01478545,-0.00119433,0.00151971,0.00
 279141,0.00249742,0.00014396,-0.00154644,-0.00105009,-0.00020176,0.000
 56559,-0.00089903,0.00003518,-0.00009809,0.00006822,-0.00022460,0.0001
 2542,-0.00004338,-0.01265295,-0.00008264,0.00169140,-0.00208967,0.0013
 7985,-0.00041017,0.00014187,0.00003664,0.00000859,0.00017083,0.0002531
 7,0.00017008,-0.00031382,-0.00052010,0.00017874,-0.15373532,-0.1728184
 9,0.03380094,-0.00302974,-0.00365798,0.00502030,-0.00000214,-0.0008615
 3,-0.00156252,0.17416167,0.00051757,-0.00052551,0.00060568,0.00030543,
 0.00022601,0.00032200,-0.00017443,-0.00000105,-0.00007800,0.00007992,-
 0.00032593,-0.00034448,0.00009076,-0.00006033,-0.00005187,0.00000253,-
 0.00000768,0.00001165,0.00050836,-0.00048049,-0.00051810,0.00346806,-0
 .00792314,0.00018479,-0.00042923,-0.00219287,-0.00132115,0.00009277,0.
 00062896,0.00033057,0.00029313,-0.00003563,0.00074991,-0.00004613,0.00
 015792,0.00004916,0.00012165,-0.00002213,0.00004417,0.01130088,0.00303
 762,-0.00198741,0.00266211,-0.00252507,0.00033875,-0.00009936,-0.00008
 014,-0.00003117,-0.00013176,-0.00014073,0.00007050,0.00067021,0.000995
 46,-0.00003926,-0.17028972,-0.22529497,0.04474375,-0.00572925,-0.00474
 408,0.00567785,-0.00233813,-0.00169324,-0.00187084,0.15987621,0.240472
 33,-0.00066164,-0.00054069,-0.00047596,0.00001191,-0.00023354,-0.00013
 287,0.00007449,0.00001730,0.00007110,0.00004137,-0.00024255,-0.0000343
 6,-0.00002039,0.00001788,0.00000568,0.00001726,0.00000413,-0.00001577,
 0.00123456,-0.00063061,-0.00073605,-0.00097761,-0.00055113,-0.00053624
 ,0.00035347,0.00103636,0.00103918,0.00008956,-0.00047527,-0.00010001,-
 0.00060202,0.00065517,-0.00091321,0.00001066,-0.00019760,-0.00007376,0
 .00001266,0.00001807,0.00004717,-0.00043687,-0.00042364,-0.00014972,-0
 .00038185,0.00008586,-0.00047203,-0.00009663,-0.00000185,0.00006808,0.
 00005268,0.00014233,0.00012822,-0.00017427,-0.00005622,0.00023837,0.03
 458995,0.04288715,-0.06577169,-0.01260180,-0.01381643,0.01030462,0.016
 21407,0.01890041,0.00103603,-0.03660461,-0.04665233,0.05653121,-0.0009
 2953,-0.00055789,-0.00107614,-0.00018155,0.00018412,-0.00007472,-0.000
 12748,-0.00008412,-0.00014556,0.00018937,0.00031331,0.00030404,-0.0000
 4922,0.00006569,0.00001071,-0.00000194,-0.00000905,0.00001034,0.000462
 83,0.00023982,0.00047183,-0.00185746,0.00116184,0.00124978,0.00073365,
 0.00039154,0.00082529,-0.00018494,-0.00029233,-0.00025546,0.00014732,0
 .00008562,0.00008115,0.00004977,0.00002973,0.00004990,-0.00008476,0.00
 000680,-0.00004452,-0.04950599,-0.00033293,-0.01481892,0.00022206,-0.0
 0829713,0.02313632,-0.00480498,-0.00390684,-0.00104836,0.00121721,0.00
 127484,-0.00065447,0.00137989,0.00082932,0.00093633,0.00602255,-0.0008
 6000,-0.01029192,0.00015929,-0.00034759,-0.00008877,-0.00326482,0.0018
 5326,0.00116766,0.00034166,-0.00056855,-0.00004059,0.57456758,0.000344
 45,-0.00006373,0.00016319,-0.00007312,-0.00003644,0.00000378,0.0000227
 5,0.00000948,0.00001577,-0.00016053,0.00004036,0.00000965,-0.00000750,
 0.00000666,0.00000428,0.00000004,0.00000702,-0.00000972,-0.00022534,0.
 00023509,-0.00013249,-0.00002031,0.00010333,-0.00085045,0.00001350,0.0
 0012261,0.00006906,-0.00002834,-0.00000875,0.00000824,0.00004332,-0.00
 002023,-0.00005618,0.00001546,0.00000437,-0.00001475,0.00000971,-0.000
 01540,-0.00000477,-0.00715766,-0.04512270,-0.00152656,-0.00226334,-0.0
 0628139,0.02228988,-0.00399056,-0.00365506,-0.00089016,0.00190166,0.00
 125753,0.00108094,0.00118877,0.00150871,-0.00082421,0.00030304,-0.0014
 7495,0.00701876,-0.00084501,-0.00004063,0.00032846,0.00173229,-0.00140
 204,-0.00075819,-0.00039921,0.00080475,-0.00023262,0.00322538,0.550311
 79,0.00112685,0.00042611,0.00128204,0.00018569,-0.00007508,0.00005077,
 0.00013659,0.00006601,0.00017283,-0.00030496,-0.00011168,-0.00030684,0
 .00004902,-0.00006361,-0.00002107,-0.00001003,-0.00000130,-0.00000190,
 -0.00064772,0.00007912,-0.00080633,0.00151571,-0.00116412,-0.00004721,
 -0.00038997,-0.00053772,-0.00067713,0.00010909,0.00016448,0.00014473,-
 0.00006112,-0.00004284,-0.00002220,-0.00003510,-0.00001064,-0.00000680
 ,0.00006070,-0.00003914,0.00004948,0.00185039,0.02937197,-0.13169524,0
 .00029886,0.00011661,0.00062131,-0.00118146,-0.00125723,-0.00006158,-0
 .00117322,-0.00083949,0.00159818,-0.00027128,-0.00105824,0.00048565,-0
 .00338350,0.00244280,-0.00148910,0.00155185,-0.00080588,0.00164080,-0.
 00018185,-0.00005987,-0.00038215,0.00032481,-0.00068663,0.00023684,0.0
 1034760,0.06960579,0.37423761,0.00002034,0.00005420,0.00003187,0.00001
 074,-0.00001893,-0.00000670,0.00000812,0.00001011,0.00001127,-0.000002
 30,-0.00002083,-0.00001512,0.00000192,-0.00000065,-0.00000204,-0.00000
 021,0.00000094,-0.00000057,-0.00001486,-0.00003638,-0.00001171,0.00000
 503,-0.00006289,0.00000708,-0.00004714,0.00001892,-0.00004334,0.000000
 11,-0.00001330,0.00003173,0.00000103,0.00000963,-0.00002587,-0.0000027
 3,0.00000142,-0.00001222,0.00000448,0.00000717,0.00000294,0.00117613,0
 .00189837,0.00030671,-0.00007604,0.00044469,-0.00054033,0.00051195,0.0
 0011966,-0.00012361,-0.00005395,0.00002538,-0.00003558,0.00030724,0.00
 011607,-0.00015621,0.00011546,0.00008218,0.00013140,0.00002212,0.00002
 528,0.00000888,0.00002946,-0.00004929,0.00000813,-0.00004705,0.0000115
 9,-0.00008402,-0.19849418,-0.13944194,0.01514766,0.20877432,-0.0000157
 1,-0.00009814,-0.00001847,-0.00001000,0.00002490,0.00001304,-0.0000097
 0,-0.00001383,-0.00001131,0.00000475,0.00002295,0.00001369,-0.00000160
 ,-0.00000033,0.00000256,0.00000029,-0.00000161,0.00000116,0.00004211,0
 .00008068,0.00000286,0.00007482,0.00003559,-0.00003266,0.00007435,-0.0
 0003891,0.00006595,-0.00000211,0.00001258,-0.00005196,0.00000297,-0.00
 001182,0.00004221,0.00000449,0.00000110,0.00001732,-0.00000872,-0.0000
 1467,-0.00000087,-0.00385955,-0.00509807,0.00182770,0.00032055,-0.0003
 4940,0.00178851,-0.00050379,0.00003999,-0.00018390,0.00025738,0.000419
 69,-0.00006972,-0.00004179,0.00003030,-0.00001399,-0.00027012,-0.00008
 439,-0.00028034,-0.00007722,-0.00006123,-0.00003295,0.00004077,0.00015
 988,0.00000648,0.00037723,-0.00017368,0.00031010,-0.14034817,-0.178517
 65,0.01184809,0.15100686,0.18672738,-0.00005266,-0.00000780,-0.0000482
 2,-0.00000275,-0.00002510,-0.00002207,0.00001556,0.00000433,0.00001338
 ,0.00000785,-0.00000329,-0.00000096,-0.00000336,0.00000451,0.00000061,
 0.00000075,-0.00000048,0.00000021,0.00004155,-0.00002556,0.00004194,-0
 .00014639,0.00010108,-0.00001875,0.00003073,0.00009509,0.00009001,-0.0
 0001761,-0.00006520,-0.00002905,-0.00000790,0.00004452,-0.00001402,0.0
 0000336,0.00000479,-0.00000441,-0.00000310,0.00000483,0.00000308,0.020
 13339,0.01898723,-0.00333652,-0.00079315,0.00149709,-0.00809779,0.0019
 4990,0.00172080,0.00073703,-0.00045094,-0.00007697,-0.00001528,-0.0002
 2054,-0.00040976,-0.00008514,0.00046412,-0.00052321,0.00037030,-0.0000
 7968,0.00005265,-0.00007549,0.00009483,-0.00012548,-0.00004246,-0.0003
 5056,0.00030053,-0.00003796,0.01590314,0.01320142,-0.04617725,-0.01583
 825,-0.01605343,0.05189608,0.00020864,0.00007133,0.00023292,0.00003544
 ,-0.00000817,0.00002505,0.00001566,0.00000810,0.00001976,-0.00003928,-
 0.00003978,-0.00005735,0.00001184,-0.00001401,-0.00000264,-0.00000059,
 0.00000035,-0.00000089,-0.00010410,0.00000363,-0.00011042,0.00041759,-
 0.00031542,-0.00013546,-0.00009929,-0.00013055,-0.00016267,0.00002707,
 0.00006511,0.00004371,-0.00001034,-0.00002177,-0.00000059,-0.00000649,
 -0.00000279,-0.00000094,0.00001364,-0.00001012,0.00000378,0.00485753,-
 0.00360653,0.00194766,0.00137249,-0.00002706,0.00005419,0.00008102,0.0
 0005965,-0.00001177,-0.00011459,0.00000589,0.00002654,-0.00008495,0.00
 058702,-0.00030880,-0.00095731,0.00043021,0.00081741,0.00004373,-0.000
 04980,0.00005500,0.00037512,-0.00016567,-0.00005068,0.00012924,-0.0001
 1783,0.00015211,-0.26532800,0.10500178,-0.05487385,-0.01827659,0.01091
 844,-0.00499301,0.28031949,-0.00002909,0.00002908,-0.00002050,0.000009
 04,-0.00001334,0.00000038,0.00000332,0.00000201,0.00000029,0.00002548,
 -0.00003271,-0.00001149,0.00000120,-0.00000176,0.00000077,0.00000206,0
 .00000070,0.00000058,0.00003089,-0.00007697,0.00005156,0.00002776,-0.0
 0006718,-0.00010806,-0.00006127,0.00000383,-0.00003071,0.00001626,0.00
 002312,0.00001273,-0.00001741,-0.00001116,-0.00000078,-0.00000266,-0.0
 0000241,-0.00000269,0.00000696,0.00000596,0.00000271,0.00458550,-0.003
 32125,0.00596901,0.00086742,0.00001508,-0.00071979,-0.00016343,0.00017
 760,-0.00015552,0.00002106,-0.00023071,0.00003660,-0.00054406,-0.00004
 613,0.00016123,-0.00033819,0.00001955,0.00102303,-0.00025610,0.0003316
 2,-0.00025416,0.00044753,-0.00001746,-0.00003575,0.00007770,-0.0000807
 6,0.00007082,0.10676788,-0.10046728,0.02268664,-0.02012397,0.01144220,
 -0.00638957,-0.11305675,0.10126372,-0.00065093,-0.00023114,-0.00070862
 ,-0.00010236,0.00006481,-0.00004740,-0.00006576,-0.00003780,-0.0000821
 9,0.00013872,0.00012977,0.00018029,-0.00002822,0.00003915,0.00000699,0
 .00000224,-0.00000200,0.00000394,0.00030410,-0.00000475,0.00036971,-0.
 00105371,0.00076780,0.00049883,0.00031136,0.00028779,0.00044088,-0.000
 08447,-0.00015301,-0.00011343,0.00006057,0.00004079,0.00002010,0.00002
 547,0.00001342,0.00001415,-0.00003980,0.00002138,-0.00002370,-0.022536
 61,0.01411298,-0.01696946,-0.00060979,-0.00138312,0.00201892,-0.000155
 10,-0.00049050,-0.00000635,0.00024356,0.00015647,-0.00011637,0.0009409
 6,0.00044336,0.00026416,0.00342839,-0.00188774,-0.00275235,-0.00008379
 ,0.00024040,-0.00022706,-0.00097932,0.00057420,0.00057546,-0.00013380,
 -0.00006238,-0.00014323,-0.05773281,0.02595531,-0.05642881,0.00278893,
 -0.00239055,0.00127658,0.05809528,-0.02872706,0.06514378,-0.00012981,0
 .00020706,0.00001300,0.00006754,-0.00002047,0.00002699,-0.00000009,0.0
 0001859,0.00000362,0.00006234,-0.00009691,-0.00003115,0.00001496,-0.00
 001171,-0.00000867,0.00000233,0.00000218,0.00000031,0.00003150,-0.0002
 3780,0.00007464,0.00041138,-0.00015877,0.00021359,-0.00020531,-0.00014
 744,-0.00029506,0.00004300,0.00006916,0.00013381,-0.00000021,-0.000017
 33,-0.00004044,-0.00001319,0.00000073,-0.00001936,0.00001747,0.0000238
 5,0.00000909,0.00068988,-0.00140245,0.00008490,-0.00032644,0.00113846,
 0.00053036,-0.00003817,-0.00014070,-0.00022259,0.00018411,-0.00029520,
 0.00007287,-0.00015127,0.00002146,0.00009137,-0.00059777,-0.00012994,-
 0.00039484,0.00040800,0.00018991,-0.00001103,-0.00002932,-0.00000449,0
 .00006410,-0.00009738,-0.00007681,-0.00017246,-0.06067834,0.04081069,0
 .02980925,0.00602660,-0.01797653,-0.01568529,-0.00288695,0.02170286,0.
 01791691,0.05719513,0.00015503,-0.00000872,0.00003477,-0.00003855,-0.0
 0000272,-0.00002699,0.00000942,-0.00000010,0.00000363,-0.00005006,0.00
 003524,-0.00000214,-0.00000694,0.00000641,0.00000468,-0.00000132,0.000
 00088,-0.00000128,-0.00012413,-0.00001785,-0.00005538,-0.00031716,-0.0
 0004090,-0.00017524,0.00005585,0.00011526,0.00011829,-0.00002251,-0.00
 003354,-0.00004669,-0.00001024,0.00000669,0.00000806,0.00000335,-0.000
 00235,-0.00000014,0.00000482,0.00000044,-0.00001229,-0.00221835,0.0071
 6317,0.01341148,0.00055052,0.00188851,-0.00012977,0.00023768,0.0001603
 5,-0.00001856,0.00038083,-0.00020881,-0.00082093,-0.00005641,-0.000219
 25,-0.00001770,-0.00031083,0.00082476,0.00040591,-0.00030048,0.0001783
 2,-0.00032744,0.00000945,0.00003322,0.00012469,-0.00000748,-0.00001563
 ,-0.00009108,0.03917544,-0.21730545,-0.13005415,0.00593571,-0.01453352
 ,-0.01231301,0.00041473,-0.00894535,-0.00747757,-0.04346839,0.23092093
 ,-0.00054465,-0.00004806,-0.00045333,-0.00002714,0.00000806,-0.0000032
 2,-0.00004311,-0.00001959,-0.00005241,0.00016140,-0.00001570,0.0000951
 8,-0.00001153,0.00001424,0.00000318,0.00000594,0.00000084,0.00000248,0
 .00035664,-0.00011165,0.00024455,-0.00038507,0.00050194,0.00013604,-0.
 00000634,0.00011238,0.00007540,0.00000555,-0.00001276,0.00002842,0.000
 01273,-0.00000957,-0.00003318,0.00000539,0.00000020,-0.00000939,-0.000
 01790,0.00001998,0.00000255,0.00269917,-0.01199608,-0.02759613,-0.0012
 2907,-0.00110876,0.00248743,-0.00047954,-0.00013911,0.00022952,0.00084
 417,0.00100849,0.00017064,0.00020913,0.00018176,-0.00009533,0.00190142
 ,-0.00209123,0.00117093,-0.00082461,0.00098835,-0.00038095,0.00039890,
 -0.00014278,0.00009143,-0.00030031,0.00021434,-0.00011366,0.03177814,-
 0.13445442,-0.14239662,-0.00158103,0.00320050,0.00357613,-0.00076433,0
 .00643973,0.00680518,-0.03216394,0.13745886,0.15601513\\0.00000279,0.0
 0000165,-0.00000010,0.00000075,0.00000098,0.00000055,0.00000193,0.0000
 0152,-0.00000071,0.00000195,0.00000254,-0.00000141,-0.00000024,0.00000
 065,0.00000077,0.00000202,0.00000277,-0.00000120,0.00000092,0.00000148
 ,-0.00000275,0.00000098,0.,0.00000039,-0.00000110,-0.00000087,-0.00000
 034,-0.00000166,0.00000017,0.00000280,-0.00000159,-0.00000187,0.000002
 24,-0.00000210,-0.00000106,0.00000251,0.00000303,0.00000250,-0.0000028
 5,-0.00000294,-0.00000297,-0.00000065,0.00000129,-0.00000332,-0.000002
 70,-0.00000114,-0.00000344,-0.00000239,-0.00000068,0.00000110,0.000000
 41,-0.00000059,-0.00000236,-0.00000175,-0.00000086,-0.00000156,-0.0000
 0507,0.00000274,0.00000288,0.00000388,-0.00000099,-0.00000126,-0.00000
 121,-0.00000378,-0.00000262,0.00000375,0.00000002,0.00000105,0.0000009
 8,-0.00000108,0.00000064,0.00000280,-0.00000033,0.00000006,0.00000129,
 0.00000067,0.00000133,0.00000077\\\@


 Not by the face shall a man be known, but by the mask.
                               -- Karen Blixen
 Job cpu time:       0 days  0 hours 27 minutes 17.2 seconds.
 File lengths (MBytes):  RWF=    151 Int=      0 D2E=      0 Chk=      5 Scr=      1
 Normal termination of Gaussian 09 at Thu Oct  8 00:08:21 2020.
