 Entering Gaussian System, Link 0=g09
 Initial command:
 /opt/software/gaussian/g09.e01/l1.exe "/localscratch/enas93.61778895.0/Gau-112270.inp" -scrdir="/localscratch/enas93.61778895.0/"
 Entering Link 1 = /opt/software/gaussian/g09.e01/l1.exe PID=    112271.
  
 Copyright (c) 1988,1990,1992,1993,1995,1998,2003,2009,2015,
            Gaussian, Inc.  All Rights Reserved.
  
 This is part of the Gaussian(R) 09 program.  It is based on
 the Gaussian(R) 03 system (copyright 2003, Gaussian, Inc.),
 the Gaussian(R) 98 system (copyright 1998, Gaussian, Inc.),
 the Gaussian(R) 94 system (copyright 1995, Gaussian, Inc.),
 the Gaussian 92(TM) system (copyright 1992, Gaussian, Inc.),
 the Gaussian 90(TM) system (copyright 1990, Gaussian, Inc.),
 the Gaussian 88(TM) system (copyright 1988, Gaussian, Inc.),
 the Gaussian 86(TM) system (copyright 1986, Carnegie Mellon
 University), and the Gaussian 82(TM) system (copyright 1983,
 Carnegie Mellon University). Gaussian is a federally registered
 trademark of Gaussian, Inc.
  
 This software contains proprietary and confidential information,
 including trade secrets, belonging to Gaussian, Inc.
  
 This software is provided under written license and may be
 used, copied, transmitted, or stored only in accord with that
 written license.
  
 The following legend is applicable only to US Government
 contracts under FAR:
  
                    RESTRICTED RIGHTS LEGEND
  
 Use, reproduction and disclosure by the US Government is
 subject to restrictions as set forth in subparagraphs (a)
 and (c) of the Commercial Computer Software - Restricted
 Rights clause in FAR 52.227-19.
  
 Gaussian, Inc.
 340 Quinnipiac St., Bldg. 40, Wallingford CT 06492
  
  
 ---------------------------------------------------------------
 Warning -- This program may not be used in any manner that
 competes with the business of Gaussian, Inc. or will provide
 assistance to any competitor of Gaussian, Inc.  The licensee
 of this program is prohibited from giving any competitor of
 Gaussian, Inc. access to this program.  By using this program,
 the user acknowledges that Gaussian, Inc. is engaged in the
 business of creating and licensing software in the field of
 computational chemistry and represents and warrants to the
 licensee that it is not a competitor of Gaussian, Inc. and that
 it will not use this program in any manner prohibited above.
 ---------------------------------------------------------------
  

 Cite this work as:
 Gaussian 09, Revision E.01,
 M. J. Frisch, G. W. Trucks, H. B. Schlegel, G. E. Scuseria, 
 M. A. Robb, J. R. Cheeseman, G. Scalmani, V. Barone, B. Mennucci, 
 G. A. Petersson, H. Nakatsuji, M. Caricato, X. Li, H. P. Hratchian, 
 A. F. Izmaylov, J. Bloino, G. Zheng, J. L. Sonnenberg, M. Hada, 
 M. Ehara, K. Toyota, R. Fukuda, J. Hasegawa, M. Ishida, T. Nakajima, 
 Y. Honda, O. Kitao, H. Nakai, T. Vreven, J. A. Montgomery, Jr., 
 J. E. Peralta, F. Ogliaro, M. Bearpark, J. J. Heyd, E. Brothers, 
 K. N. Kudin, V. N. Staroverov, T. Keith, R. Kobayashi, J. Normand, 
 K. Raghavachari, A. Rendell, J. C. Burant, S. S. Iyengar, J. Tomasi, 
 M. Cossi, N. Rega, J. M. Millam, M. Klene, J. E. Knox, J. B. Cross, 
 V. Bakken, C. Adamo, J. Jaramillo, R. Gomperts, R. E. Stratmann, 
 O. Yazyev, A. J. Austin, R. Cammi, C. Pomelli, J. W. Ochterski, 
 R. L. Martin, K. Morokuma, V. G. Zakrzewski, G. A. Voth, 
 P. Salvador, J. J. Dannenberg, S. Dapprich, A. D. Daniels, 
 O. Farkas, J. B. Foresman, J. V. Ortiz, J. Cioslowski, 
 and D. J. Fox, Gaussian, Inc., Wallingford CT, 2013.
 
 ******************************************
 Gaussian 09:  EM64L-G09RevE.01 30-Nov-2015
                12-Feb-2021 
 ******************************************
 %nprocshared=16
 Will use up to   16 processors via shared memory.
 %mem=10GB
 --------------------------------
 # opt freq b3lyp/6-31g(d) nosymm
 --------------------------------
 1/14=-1,18=20,19=15,26=3,38=1/1,3;
 2/9=110,12=2,15=1,17=6,18=5,40=1/2;
 3/5=1,6=6,7=1,11=2,16=1,25=1,30=1,71=1,74=-5/1,2,3;
 4//1;
 5/5=2,38=5/2;
 6/7=2,8=2,9=2,10=2,28=1/1;
 7/30=1/1,2,3,16;
 1/14=-1,18=20,19=15,26=3/3(2);
 2/9=110,15=1/2;
 99//99;
 2/9=110,15=1/2;
 3/5=1,6=6,7=1,11=2,16=1,25=1,30=1,71=1,74=-5/1,2,3;
 4/5=5,16=3,69=1/1;
 5/5=2,38=5/2;
 7/30=1/1,2,3,16;
 1/14=-1,18=20,19=15,26=3/3(-5);
 2/9=110,15=1/2;
 6/7=2,8=2,9=2,10=2,19=2,28=1/1;
 99/9=1/99;
 -------------------
 Title Card Required
 -------------------
 Symbolic Z-matrix:
 Charge =  0 Multiplicity = 1
 C                    -0.15522   1.53139  -0.69372 
 C                    -2.55764   0.06579  -1.00804 
 C                    -2.34226   0.86063   0.23092 
 N                    -1.32414   1.85487  -0.03045 
 H                    -3.52566  -0.37781  -1.20454 
 H                    -3.25099   1.37767   0.54967 
 O                     0.8878    2.15142  -0.51727 
 N                    -0.27021   0.47922  -1.60415 
 C                    -1.50943  -0.14317  -1.8335 
 N                    -1.52713  -1.00672  -2.92891 
 H                    -1.1361   -0.62009  -3.78202 
 H                    -2.44475  -1.40128  -3.09838 
 H                    -1.15346   2.55193   0.6839 
 S                     3.42478  -1.62501   0.4511 
 C                     3.47476   0.09867   1.05986 
 H                     4.32774   0.58165   0.57512 
 H                     2.56716   0.64997   0.79762 
 H                     3.63069   0.12279   2.14324 
 C                     0.95657  -0.02772  -2.22387 
 H                     1.09017  -1.08874  -1.99835 
 H                     1.78382   0.54383  -1.80911 
 H                     0.94933   0.11546  -3.31136 
 C                     2.06084  -2.28026   1.4761 
 H                     1.91595  -3.32495   1.18739 
 H                     2.31784  -2.24309   2.53975 
 H                     1.12904  -1.73239   1.30433 
 C                    -1.77884   0.83012   3.04944 
 H                    -0.95731   1.54199   2.92022 
 H                    -2.71796   1.37142   3.20684 
 H                    -1.57306   0.23107   3.94051 
 S                    -1.90004  -0.33016   1.63852 
 
 Add virtual bond connecting atoms H17        and O7         Dist= 4.93D+00.
 Add virtual bond connecting atoms H17        and H21        Dist= 5.15D+00.

 GradGradGradGradGradGradGradGradGradGradGradGradGradGradGradGradGradGrad
 Berny optimization.
 Initialization pass.
                           ----------------------------
                           !    Initial Parameters    !
                           ! (Angstroms and Degrees)  !
 --------------------------                            --------------------------
 ! Name  Definition              Value          Derivative Info.                !
 --------------------------------------------------------------------------------
 ! R1    R(1,4)                  1.3824         estimate D2E/DX2                !
 ! R2    R(1,7)                  1.2262         estimate D2E/DX2                !
 ! R3    R(1,8)                  1.3961         estimate D2E/DX2                !
 ! R4    R(2,3)                  1.4877         estimate D2E/DX2                !
 ! R5    R(2,5)                  1.0828         estimate D2E/DX2                !
 ! R6    R(2,9)                  1.3505         estimate D2E/DX2                !
 ! R7    R(3,4)                  1.4469         estimate D2E/DX2                !
 ! R8    R(3,6)                  1.093          estimate D2E/DX2                !
 ! R9    R(3,31)                 1.896          estimate D2E/DX2                !
 ! R10   R(4,13)                 1.0126         estimate D2E/DX2                !
 ! R11   R(7,17)                 2.6084         estimate D2E/DX2                !
 ! R12   R(8,9)                  1.4056         estimate D2E/DX2                !
 ! R13   R(8,19)                 1.4649         estimate D2E/DX2                !
 ! R14   R(9,10)                 1.395          estimate D2E/DX2                !
 ! R15   R(10,11)                1.015          estimate D2E/DX2                !
 ! R16   R(10,12)                1.0131         estimate D2E/DX2                !
 ! R17   R(14,15)                1.8287         estimate D2E/DX2                !
 ! R18   R(14,23)                1.8276         estimate D2E/DX2                !
 ! R19   R(15,16)                1.0935         estimate D2E/DX2                !
 ! R20   R(15,17)                1.0938         estimate D2E/DX2                !
 ! R21   R(15,18)                1.0948         estimate D2E/DX2                !
 ! R22   R(17,21)                2.724          estimate D2E/DX2                !
 ! R23   R(19,20)                1.0929         estimate D2E/DX2                !
 ! R24   R(19,21)                1.0877         estimate D2E/DX2                !
 ! R25   R(19,22)                1.0969         estimate D2E/DX2                !
 ! R26   R(23,24)                1.0935         estimate D2E/DX2                !
 ! R27   R(23,25)                1.0949         estimate D2E/DX2                !
 ! R28   R(23,26)                1.0945         estimate D2E/DX2                !
 ! R29   R(27,28)                1.0947         estimate D2E/DX2                !
 ! R30   R(27,29)                1.0953         estimate D2E/DX2                !
 ! R31   R(27,30)                1.0933         estimate D2E/DX2                !
 ! R32   R(27,31)                1.8307         estimate D2E/DX2                !
 ! A1    A(4,1,7)              122.1353         estimate D2E/DX2                !
 ! A2    A(4,1,8)              114.8092         estimate D2E/DX2                !
 ! A3    A(7,1,8)              123.0241         estimate D2E/DX2                !
 ! A4    A(3,2,5)              119.9632         estimate D2E/DX2                !
 ! A5    A(3,2,9)              118.643          estimate D2E/DX2                !
 ! A6    A(5,2,9)              121.3044         estimate D2E/DX2                !
 ! A7    A(2,3,4)              108.5763         estimate D2E/DX2                !
 ! A8    A(2,3,6)              112.0391         estimate D2E/DX2                !
 ! A9    A(2,3,31)             108.4509         estimate D2E/DX2                !
 ! A10   A(4,3,6)              108.219          estimate D2E/DX2                !
 ! A11   A(4,3,31)             113.676          estimate D2E/DX2                !
 ! A12   A(6,3,31)             105.9325         estimate D2E/DX2                !
 ! A13   A(1,4,3)              121.3926         estimate D2E/DX2                !
 ! A14   A(1,4,13)             110.919          estimate D2E/DX2                !
 ! A15   A(3,4,13)             117.6595         estimate D2E/DX2                !
 ! A16   A(1,7,17)             109.2162         estimate D2E/DX2                !
 ! A17   A(1,8,9)              120.8461         estimate D2E/DX2                !
 ! A18   A(1,8,19)             117.8848         estimate D2E/DX2                !
 ! A19   A(9,8,19)             121.0677         estimate D2E/DX2                !
 ! A20   A(2,9,8)              121.0681         estimate D2E/DX2                !
 ! A21   A(2,9,10)             124.466          estimate D2E/DX2                !
 ! A22   A(8,9,10)             114.4206         estimate D2E/DX2                !
 ! A23   A(9,10,11)            114.7924         estimate D2E/DX2                !
 ! A24   A(9,10,12)            112.5774         estimate D2E/DX2                !
 ! A25   A(11,10,12)           110.8974         estimate D2E/DX2                !
 ! A26   A(15,14,23)            99.8825         estimate D2E/DX2                !
 ! A27   A(14,15,16)           106.8612         estimate D2E/DX2                !
 ! A28   A(14,15,17)           111.8748         estimate D2E/DX2                !
 ! A29   A(14,15,18)           110.737          estimate D2E/DX2                !
 ! A30   A(16,15,17)           108.5631         estimate D2E/DX2                !
 ! A31   A(16,15,18)           108.531          estimate D2E/DX2                !
 ! A32   A(17,15,18)           110.1403         estimate D2E/DX2                !
 ! A33   A(7,17,15)            160.9457         estimate D2E/DX2                !
 ! A34   A(7,17,21)             49.8242         estimate D2E/DX2                !
 ! A35   A(15,17,21)           116.6416         estimate D2E/DX2                !
 ! A36   A(8,19,20)            110.5505         estimate D2E/DX2                !
 ! A37   A(8,19,21)            107.083          estimate D2E/DX2                !
 ! A38   A(8,19,22)            111.6361         estimate D2E/DX2                !
 ! A39   A(20,19,21)           109.7842         estimate D2E/DX2                !
 ! A40   A(20,19,22)           109.3966         estimate D2E/DX2                !
 ! A41   A(21,19,22)           108.3301         estimate D2E/DX2                !
 ! A42   A(17,21,19)           127.1652         estimate D2E/DX2                !
 ! A43   A(14,23,24)           107.0576         estimate D2E/DX2                !
 ! A44   A(14,23,25)           110.9461         estimate D2E/DX2                !
 ! A45   A(14,23,26)           111.5843         estimate D2E/DX2                !
 ! A46   A(24,23,25)           108.6645         estimate D2E/DX2                !
 ! A47   A(24,23,26)           108.904          estimate D2E/DX2                !
 ! A48   A(25,23,26)           109.5907         estimate D2E/DX2                !
 ! A49   A(28,27,29)           109.8182         estimate D2E/DX2                !
 ! A50   A(28,27,30)           108.1362         estimate D2E/DX2                !
 ! A51   A(28,27,31)           111.7671         estimate D2E/DX2                !
 ! A52   A(29,27,30)           108.3647         estimate D2E/DX2                !
 ! A53   A(29,27,31)           111.5424         estimate D2E/DX2                !
 ! A54   A(30,27,31)           107.0579         estimate D2E/DX2                !
 ! A55   A(3,31,27)            100.9269         estimate D2E/DX2                !
 ! D1    D(7,1,4,3)           -152.8142         estimate D2E/DX2                !
 ! D2    D(7,1,4,13)            -8.1822         estimate D2E/DX2                !
 ! D3    D(8,1,4,3)             29.1664         estimate D2E/DX2                !
 ! D4    D(8,1,4,13)           173.7985         estimate D2E/DX2                !
 ! D5    D(4,1,7,17)           109.1404         estimate D2E/DX2                !
 ! D6    D(8,1,7,17)           -73.0039         estimate D2E/DX2                !
 ! D7    D(4,1,8,9)              2.1853         estimate D2E/DX2                !
 ! D8    D(4,1,8,19)          -172.7124         estimate D2E/DX2                !
 ! D9    D(7,1,8,9)           -175.8143         estimate D2E/DX2                !
 ! D10   D(7,1,8,19)             9.288          estimate D2E/DX2                !
 ! D11   D(5,2,3,4)           -151.0673         estimate D2E/DX2                !
 ! D12   D(5,2,3,6)            -31.6027         estimate D2E/DX2                !
 ! D13   D(5,2,3,31)            84.9652         estimate D2E/DX2                !
 ! D14   D(9,2,3,4)             32.3256         estimate D2E/DX2                !
 ! D15   D(9,2,3,6)            151.7902         estimate D2E/DX2                !
 ! D16   D(9,2,3,31)           -91.6418         estimate D2E/DX2                !
 ! D17   D(3,2,9,8)             -6.0928         estimate D2E/DX2                !
 ! D18   D(3,2,9,10)           171.3207         estimate D2E/DX2                !
 ! D19   D(5,2,9,8)            177.3475         estimate D2E/DX2                !
 ! D20   D(5,2,9,10)            -5.2389         estimate D2E/DX2                !
 ! D21   D(2,3,4,1)            -45.4005         estimate D2E/DX2                !
 ! D22   D(2,3,4,13)           172.2202         estimate D2E/DX2                !
 ! D23   D(6,3,4,1)           -167.2289         estimate D2E/DX2                !
 ! D24   D(6,3,4,13)            50.3918         estimate D2E/DX2                !
 ! D25   D(31,3,4,1)            75.3921         estimate D2E/DX2                !
 ! D26   D(31,3,4,13)          -66.9871         estimate D2E/DX2                !
 ! D27   D(2,3,31,27)         -176.908          estimate D2E/DX2                !
 ! D28   D(4,3,31,27)           62.2289         estimate D2E/DX2                !
 ! D29   D(6,3,31,27)          -56.4689         estimate D2E/DX2                !
 ! D30   D(1,7,17,15)          124.4431         estimate D2E/DX2                !
 ! D31   D(1,7,17,21)           74.7565         estimate D2E/DX2                !
 ! D32   D(1,8,9,2)            -13.2275         estimate D2E/DX2                !
 ! D33   D(1,8,9,10)           169.1142         estimate D2E/DX2                !
 ! D34   D(19,8,9,2)           161.5069         estimate D2E/DX2                !
 ! D35   D(19,8,9,10)          -16.1513         estimate D2E/DX2                !
 ! D36   D(1,8,19,20)          120.7228         estimate D2E/DX2                !
 ! D37   D(1,8,19,21)            1.1602         estimate D2E/DX2                !
 ! D38   D(1,8,19,22)         -117.2541         estimate D2E/DX2                !
 ! D39   D(9,8,19,20)          -54.163          estimate D2E/DX2                !
 ! D40   D(9,8,19,21)         -173.7257         estimate D2E/DX2                !
 ! D41   D(9,8,19,22)           67.8601         estimate D2E/DX2                !
 ! D42   D(2,9,10,11)          133.6396         estimate D2E/DX2                !
 ! D43   D(2,9,10,12)            5.5001         estimate D2E/DX2                !
 ! D44   D(8,9,10,11)          -48.7934         estimate D2E/DX2                !
 ! D45   D(8,9,10,12)         -176.9329         estimate D2E/DX2                !
 ! D46   D(23,14,15,16)        175.0425         estimate D2E/DX2                !
 ! D47   D(23,14,15,17)        -66.2627         estimate D2E/DX2                !
 ! D48   D(23,14,15,18)         57.0181         estimate D2E/DX2                !
 ! D49   D(15,14,23,24)        178.9656         estimate D2E/DX2                !
 ! D50   D(15,14,23,25)        -62.6173         estimate D2E/DX2                !
 ! D51   D(15,14,23,26)         59.8986         estimate D2E/DX2                !
 ! D52   D(14,15,17,7)         -90.9448         estimate D2E/DX2                !
 ! D53   D(14,15,17,21)        -50.2659         estimate D2E/DX2                !
 ! D54   D(16,15,17,7)          26.7356         estimate D2E/DX2                !
 ! D55   D(16,15,17,21)         67.4145         estimate D2E/DX2                !
 ! D56   D(18,15,17,7)         145.4377         estimate D2E/DX2                !
 ! D57   D(18,15,17,21)       -173.8833         estimate D2E/DX2                !
 ! D58   D(7,17,21,19)         -90.9697         estimate D2E/DX2                !
 ! D59   D(15,17,21,19)        105.2011         estimate D2E/DX2                !
 ! D60   D(8,19,21,17)          62.2261         estimate D2E/DX2                !
 ! D61   D(20,19,21,17)        -57.8279         estimate D2E/DX2                !
 ! D62   D(22,19,21,17)       -177.2326         estimate D2E/DX2                !
 ! D63   D(28,27,31,3)         -64.5879         estimate D2E/DX2                !
 ! D64   D(29,27,31,3)          58.787          estimate D2E/DX2                !
 ! D65   D(30,27,31,3)         177.1751         estimate D2E/DX2                !
 --------------------------------------------------------------------------------
 Trust Radius=3.00D-01 FncErr=1.00D-07 GrdErr=1.00D-06
 Number of steps in this run=    162 maximum allowed number of steps=    186.
 GradGradGradGradGradGradGradGradGradGradGradGradGradGradGradGradGradGrad

                          Input orientation:                          
 ---------------------------------------------------------------------
 Center     Atomic      Atomic             Coordinates (Angstroms)
 Number     Number       Type             X           Y           Z
 ---------------------------------------------------------------------
      1          6           0       -0.155223    1.531386   -0.693716
      2          6           0       -2.557637    0.065792   -1.008036
      3          6           0       -2.342264    0.860631    0.230923
      4          7           0       -1.324142    1.854869   -0.030452
      5          1           0       -3.525661   -0.377806   -1.204537
      6          1           0       -3.250986    1.377672    0.549670
      7          8           0        0.887796    2.151421   -0.517271
      8          7           0       -0.270210    0.479224   -1.604147
      9          6           0       -1.509428   -0.143174   -1.833498
     10          7           0       -1.527126   -1.006716   -2.928912
     11          1           0       -1.136096   -0.620090   -3.782017
     12          1           0       -2.444749   -1.401284   -3.098383
     13          1           0       -1.153464    2.551932    0.683895
     14         16           0        3.424780   -1.625008    0.451097
     15          6           0        3.474755    0.098670    1.059862
     16          1           0        4.327742    0.581649    0.575124
     17          1           0        2.567158    0.649966    0.797623
     18          1           0        3.630688    0.122792    2.143241
     19          6           0        0.956569   -0.027721   -2.223873
     20          1           0        1.090174   -1.088738   -1.998354
     21          1           0        1.783819    0.543830   -1.809107
     22          1           0        0.949326    0.115459   -3.311358
     23          6           0        2.060844   -2.280258    1.476097
     24          1           0        1.915953   -3.324949    1.187390
     25          1           0        2.317840   -2.243088    2.539750
     26          1           0        1.129036   -1.732390    1.304329
     27          6           0       -1.778842    0.830119    3.049445
     28          1           0       -0.957308    1.541990    2.920218
     29          1           0       -2.717962    1.371420    3.206837
     30          1           0       -1.573055    0.231071    3.940510
     31         16           0       -1.900036   -0.330155    1.638517
 ---------------------------------------------------------------------
                    Distance matrix (angstroms):
                    1          2          3          4          5
     1  C    0.000000
     2  C    2.831670   0.000000
     3  C    2.467391   1.487674   0.000000
     4  N    1.382365   2.382851   1.446858   0.000000
     5  H    3.907148   1.082803   2.234883   3.348134   0.000000
     6  H    3.339668   2.151327   1.093026   2.068088   2.496876
     7  O    1.226159   4.057303   3.557980   2.284208   5.133023
     8  N    1.396120   2.399708   2.793987   2.340873   3.390007
     9  C    2.436622   1.350480   2.441941   2.697681   2.125050
    10  N    3.649682   2.429401   3.759786   4.078105   2.713510
    11  H    3.889545   3.191580   4.444217   4.498336   3.523085
    12  H    4.430001   2.556288   4.026294   4.611994   2.408844
    13  H    1.983888   3.318919   2.116348   1.012581   4.216261
    14  S    4.908140   6.385702   6.283763   5.907088   7.252949
    15  C    4.278370   6.377071   5.924984   5.225173   7.372948
    16  H    4.754885   7.083851   6.684705   5.825084   8.109481
    17  H    3.226818   5.464905   4.946509   4.156888   6.495183
    18  H    4.936151   6.944722   6.314865   5.681142   7.916536
    19  C    2.451179   3.719765   4.206839   3.681967   4.609988
    20  H    3.180903   3.952239   4.533359   4.285602   4.737246
    21  H    2.445250   4.440549   4.613745   3.813379   5.422683
    22  H    3.174418   4.196016   4.892607   4.354141   4.970665
    23  C    4.914028   5.745018   5.550045   5.552215   6.481833
    24  H    5.604669   6.027440   6.047009   6.229917   6.634616
    25  H    5.551396   6.456624   6.056428   6.055016   7.186478
    26  H    4.036550   4.708720   4.463842   4.546224   5.458526
    27  C    4.139948   4.201651   2.874446   3.277595   4.754663
    28  H    3.701888   4.491257   3.100752   2.989802   5.224525
    29  H    4.669854   4.415373   3.042716   3.557597   4.813771
    30  H    5.017680   5.048250   3.840451   4.297350   5.536688
    31  S    3.456735   2.755623   1.896011   2.809171   3.275345
                    6          7          8          9         10
     6  H    0.000000
     7  O    4.343566   0.000000
     8  N    3.785652   2.306192   0.000000
     9  C    3.320465   3.569916   1.405575   0.000000
    10  N    4.556043   4.649913   2.354327   1.394973   0.000000
    11  H    5.217981   4.736663   2.588700   2.040478   1.014974
    12  H    4.656276   5.512686   3.240011   2.014349   1.013132
    13  H    2.407592   2.402072   3.211136   3.705074   5.084877
    14  S    7.320632   4.651391   4.722793   5.635744   6.027281
    15  C    6.865256   3.659712   4.611565   5.768197   6.492381
    16  H    7.620461   3.935828   5.089290   6.356051   7.005758
    17  H    5.868717   2.608365   3.721332   4.916342   5.778825
    18  H    7.174373   4.326328   5.420975   6.504305   7.321582
    19  C    5.231748   2.768733   1.464937   2.499373   2.761205
    20  H    5.605468   3.568360   2.112948   2.771137   2.779015
    21  H    5.622133   2.248565   2.065240   3.364230   3.823678
    22  H    5.843230   3.457723   2.129357   2.880353   2.745607
    23  C    6.515693   4.998934   4.747258   5.316708   5.822331
    24  H    7.015596   5.826972   5.200358   5.566210   5.845763
    25  H    6.934129   5.540949   5.592930   6.179233   6.798429
    26  H    5.424628   4.296558   3.912590   4.396937   5.049963
    27  C    2.952270   4.645241   4.904591   4.986283   6.259239
    28  H    3.302644   3.948689   4.698027   5.073700   6.405694
    29  H    2.710109   5.242029   5.471112   5.399956   6.687379
    30  H    3.953219   5.441998   5.701071   5.786474   6.980199
    31  S    2.434610   4.310180   3.718373   3.498918   4.632300
                   11         12         13         14         15
    11  H    0.000000
    12  H    1.670387   0.000000
    13  H    5.477809   5.621473   0.000000
    14  S    6.303230   6.862961   6.201721   0.000000
    15  C    6.724608   7.387922   5.251691   1.828704   0.000000
    16  H    7.091007   7.955709   5.825587   2.387479   1.093539
    17  H    6.024968   6.671259   4.180124   2.455830   1.093814
    18  H    7.640863   8.167519   5.560443   2.441425   1.094809
    19  C    2.675437   3.770996   4.422891   3.974777   4.140067
    20  H    2.890910   3.715297   5.048054   3.426044   4.055718
    21  H    3.711198   4.829750   4.344556   3.536260   3.359824
    22  H    2.260871   3.723656   5.130319   4.828371   5.048330
    23  C    6.373723   6.480650   5.857424   1.827648   2.798516
    24  H    6.428551   6.409685   6.649252   2.389244   3.763947
    25  H    7.384344   7.428286   6.203738   2.443320   3.002058
    26  H    5.677935   5.680268   4.893890   2.451525   2.985790
    27  C    7.013209   6.574069   2.991917   6.313220   5.665134
    28  H    7.044609   6.862864   2.461626   5.943831   5.018693
    29  H    7.437237   6.893354   3.194761   7.369258   6.676761
    30  H    7.781570   7.278080   4.020944   6.371765   5.813437
    31  S    5.481775   4.886947   3.126515   5.607163   5.422832
                   16         17         18         19         20
    16  H    0.000000
    17  H    1.775902   0.000000
    18  H    1.776352   1.794351   0.000000
    19  C    4.423858   3.490372   5.123012   0.000000
    20  H    4.460362   3.608609   5.007477   1.092916   0.000000
    21  H    3.486765   2.723954   4.382836   1.087678   1.783882
    22  H    5.170664   4.448236   6.078027   1.096894   1.787151
    23  C    3.760464   3.050065   2.946887   4.470249   3.799175
    24  H    4.631750   4.046719   3.967478   4.840335   3.978884
    25  H    3.984796   3.386285   2.734626   5.427063   4.840876
    26  H    4.014752   2.828527   3.225482   3.922225   3.365043
    27  C    6.593510   4.898048   5.530328   6.002187   6.115026
    28  H    5.861184   4.209867   4.864928   5.708642   5.941823
    29  H    7.562513   5.852974   6.557108   6.704654   6.902774
    30  H    6.802068   5.214842   5.506436   6.668252   6.641144
    31  S    6.383370   4.650114   5.572146   4.813493   4.769029
                   21         22         23         24         25
    21  H    0.000000
    22  H    1.771056   0.000000
    23  C    4.341058   5.467601   0.000000
    24  H    4.895294   5.745390   1.093492   0.000000
    25  H    5.192750   6.455311   1.094891   1.777868   0.000000
    26  H    3.911956   4.975079   1.094500   1.780213   1.788947
    27  C    6.031587   6.957978   5.185852   5.863732   5.146571
    28  H    5.556673   6.671041   5.079794   5.911465   5.019777
    29  H    6.790481   7.583753   6.258370   6.899798   6.234499
    30  H    6.665172   7.678891   5.058194   5.691935   4.818989
    31  S    5.120620   5.728761   4.417901   4.871763   4.718264
                   26         27         28         29         30
    26  H    0.000000
    27  C    4.250604   0.000000
    28  H    4.205412   1.094705   0.000000
    29  H    5.296467   1.095320   1.791967   0.000000
    30  H    4.255106   1.093254   1.771623   1.774679   0.000000
    31  S    3.354582   1.830749   2.456913   2.454381   2.391874
                   31
    31  S    0.000000
 Symmetry turned off by external request.
 Stoichiometry    C8H17N3OS2
 Framework group  C1[X(C8H17N3OS2)]
 Deg. of freedom    87
 Full point group                 C1      NOp   1
 Rotational constants (GHZ):      0.5644025      0.3465718      0.2846257
 Standard basis: 6-31G(d) (6D, 7F)
   252 basis functions,   508 primitive gaussians,   252 cartesian basis functions
    63 alpha electrons       63 beta electrons
       nuclear repulsion energy      1169.6063241441 Hartrees.
 NAtoms=   31 NActive=   31 NUniq=   31 SFac= 1.00D+00 NAtFMM=   60 NAOKFM=F Big=F
 Integral buffers will be    131072 words long.
 Raffenetti 2 integral format.
 Two-electron integral symmetry is turned off.
 One-electron integrals computed using PRISM.
 NBasis=   252 RedAO= T EigKep=  1.51D-03  NBF=   252
 NBsUse=   252 1.00D-06 EigRej= -1.00D+00 NBFU=   252
 ExpMin= 1.17D-01 ExpMax= 2.19D+04 ExpMxC= 3.30D+03 IAcc=1 IRadAn=         1 AccDes= 0.00D+00
 Harris functional with IExCor=  402 and IRadAn=       1 diagonalized for initial guess.
 HarFok:  IExCor=  402 AccDes= 0.00D+00 IRadAn=         1 IDoV= 1 UseB2=F ITyADJ=14
 ICtDFT=  3500011 ScaDFX=  1.000000  1.000000  1.000000  1.000000
 FoFCou: FMM=F IPFlag=           0 FMFlag=      100000 FMFlg1=           0
         NFxFlg=           0 DoJE=T BraDBF=F KetDBF=T FulRan=T
         wScrn=  0.000000 ICntrl=     500 IOpCl=  0 I1Cent=   200000004 NGrid=           0
         NMat0=    1 NMatS0=      1 NMatT0=    0 NMatD0=    1 NMtDS0=    0 NMtDT0=    0
 Symmetry not used in FoFCou.
 Keep R1 ints in memory in canonical form, NReq=516431061.
 Requested convergence on RMS density matrix=1.00D-08 within 128 cycles.
 Requested convergence on MAX density matrix=1.00D-06.
 Requested convergence on             energy=1.00D-06.
 No special actions if energy rises.
 Integral accuracy reduced to 1.0D-05 until final iterations.
 Initial convergence to 1.0D-05 achieved.  Increase integral accuracy.
 SCF Done:  E(RB3LYP) =  -1350.94994188     A.U. after   15 cycles
            NFock= 15  Conv=0.88D-08     -V/T= 2.0059

 **********************************************************************

            Population analysis using the SCF density.

 **********************************************************************

 Alpha  occ. eigenvalues --  -88.86291 -88.85594 -19.11273 -14.37957 -14.36234
 Alpha  occ. eigenvalues --  -14.35928 -10.31547 -10.27177 -10.26272 -10.21379
 Alpha  occ. eigenvalues --  -10.21127 -10.19445 -10.19168 -10.17784  -7.92398
 Alpha  occ. eigenvalues --   -7.91677  -5.88915  -5.88541  -5.88210  -5.87857
 Alpha  occ. eigenvalues --   -5.87834  -5.87116  -1.05237  -0.97558  -0.93331
 Alpha  occ. eigenvalues --   -0.89838  -0.79034  -0.77722  -0.76175  -0.72055
 Alpha  occ. eigenvalues --   -0.68883  -0.67180  -0.64226  -0.61217  -0.58304
 Alpha  occ. eigenvalues --   -0.56031  -0.53478  -0.51594  -0.49729  -0.47672
 Alpha  occ. eigenvalues --   -0.46492  -0.44131  -0.43124  -0.42773  -0.42500
 Alpha  occ. eigenvalues --   -0.42271  -0.41911  -0.41041  -0.40878  -0.40176
 Alpha  occ. eigenvalues --   -0.39130  -0.38667  -0.37154  -0.35373  -0.34839
 Alpha  occ. eigenvalues --   -0.32731  -0.29764  -0.27251  -0.26987  -0.25108
 Alpha  occ. eigenvalues --   -0.22257  -0.20528  -0.20288
 Alpha virt. eigenvalues --    0.01090   0.02825   0.05485   0.06002   0.06362
 Alpha virt. eigenvalues --    0.06747   0.09182   0.10231   0.10948   0.11466
 Alpha virt. eigenvalues --    0.12473   0.13485   0.13814   0.14338   0.14714
 Alpha virt. eigenvalues --    0.15790   0.16208   0.17163   0.17667   0.18346
 Alpha virt. eigenvalues --    0.18682   0.19170   0.19662   0.21248   0.21435
 Alpha virt. eigenvalues --    0.23178   0.26013   0.29201   0.33254   0.35093
 Alpha virt. eigenvalues --    0.37254   0.37683   0.38799   0.39633   0.39859
 Alpha virt. eigenvalues --    0.40910   0.41019   0.41694   0.44621   0.46526
 Alpha virt. eigenvalues --    0.47317   0.49137   0.51150   0.52195   0.53121
 Alpha virt. eigenvalues --    0.53789   0.55944   0.56485   0.57544   0.58216
 Alpha virt. eigenvalues --    0.59418   0.60209   0.61015   0.61451   0.62335
 Alpha virt. eigenvalues --    0.64185   0.66410   0.67128   0.68579   0.69644
 Alpha virt. eigenvalues --    0.71518   0.72929   0.73425   0.75700   0.77006
 Alpha virt. eigenvalues --    0.79328   0.80817   0.82322   0.83351   0.84215
 Alpha virt. eigenvalues --    0.84698   0.85136   0.85415   0.86133   0.86548
 Alpha virt. eigenvalues --    0.87138   0.88147   0.89174   0.89894   0.90368
 Alpha virt. eigenvalues --    0.90886   0.91330   0.91831   0.92118   0.92671
 Alpha virt. eigenvalues --    0.93073   0.93344   0.94210   0.95143   0.97201
 Alpha virt. eigenvalues --    0.98598   0.99635   1.00071   1.01268   1.02311
 Alpha virt. eigenvalues --    1.03410   1.03845   1.05081   1.06969   1.11300
 Alpha virt. eigenvalues --    1.13252   1.17459   1.21819   1.23239   1.25890
 Alpha virt. eigenvalues --    1.28354   1.29121   1.32159   1.34991   1.35293
 Alpha virt. eigenvalues --    1.37802   1.39432   1.41573   1.44067   1.47594
 Alpha virt. eigenvalues --    1.53332   1.57891   1.60287   1.64037   1.69030
 Alpha virt. eigenvalues --    1.69559   1.69799   1.71550   1.73569   1.74722
 Alpha virt. eigenvalues --    1.76109   1.76801   1.77798   1.80177   1.80949
 Alpha virt. eigenvalues --    1.84547   1.87564   1.88281   1.89318   1.92696
 Alpha virt. eigenvalues --    1.94617   1.99382   2.01011   2.04272   2.09225
 Alpha virt. eigenvalues --    2.09639   2.10787   2.12453   2.13340   2.15092
 Alpha virt. eigenvalues --    2.21018   2.22402   2.22754   2.23301   2.24451
 Alpha virt. eigenvalues --    2.24988   2.25907   2.26365   2.27161   2.27688
 Alpha virt. eigenvalues --    2.29027   2.33509   2.34207   2.39244   2.42611
 Alpha virt. eigenvalues --    2.46957   2.48359   2.51910   2.55508   2.59115
 Alpha virt. eigenvalues --    2.65536   2.67097   2.69716   2.76233   2.77242
 Alpha virt. eigenvalues --    2.85458   2.95574   3.01287   3.19797   3.30359
 Alpha virt. eigenvalues --    3.84744   3.89584   3.93015   4.00529   4.07795
 Alpha virt. eigenvalues --    4.10745   4.20652   4.22105   4.22888   4.24340
 Alpha virt. eigenvalues --    4.29783   4.35752   4.55292   4.60267
          Condensed to atoms (all electrons):
               1          2          3          4          5          6
     1  C    4.184637  -0.028000  -0.017167   0.309773   0.000518   0.003174
     2  C   -0.028000   5.180042   0.337968  -0.016438   0.362968  -0.027230
     3  C   -0.017167   0.337968   5.063145   0.218252  -0.041316   0.365324
     4  N    0.309773  -0.016438   0.218252   7.117535   0.003392  -0.046756
     5  H    0.000518   0.362968  -0.041316   0.003392   0.569373  -0.005071
     6  H    0.003174  -0.027230   0.365324  -0.046756  -0.005071   0.600621
     7  O    0.583851   0.000537   0.001783  -0.089942   0.000004  -0.000115
     8  N    0.268658  -0.060290  -0.010501  -0.106851   0.004118  -0.000188
     9  C   -0.017246   0.632835  -0.013425  -0.014509  -0.027093   0.003748
    10  N    0.001545  -0.084301   0.006063  -0.000220  -0.008156  -0.000061
    11  H    0.000064   0.004603  -0.000175   0.000000   0.000084   0.000009
    12  H    0.000015  -0.005525   0.000041   0.000014   0.005060   0.000000
    13  H   -0.017389   0.004589  -0.030471   0.295530  -0.000150  -0.004044
    14  S    0.000086  -0.000002   0.000002  -0.000004  -0.000000   0.000000
    15  C    0.000049  -0.000001   0.000003   0.000015   0.000000  -0.000000
    16  H   -0.000009  -0.000000   0.000000   0.000000  -0.000000   0.000000
    17  H    0.001588   0.000004  -0.000023  -0.000173  -0.000000   0.000000
    18  H   -0.000001   0.000000  -0.000000   0.000000   0.000000   0.000000
    19  C   -0.037305   0.004766  -0.000211   0.003901  -0.000136   0.000005
    20  H    0.001953   0.000504  -0.000095   0.000026  -0.000008   0.000001
    21  H   -0.001610  -0.000158  -0.000085   0.000942   0.000002   0.000001
    22  H    0.001971  -0.000305   0.000046  -0.000138   0.000003  -0.000000
    23  C   -0.000007   0.000005  -0.000002   0.000003   0.000000  -0.000000
    24  H   -0.000000  -0.000000   0.000000  -0.000000  -0.000000   0.000000
    25  H    0.000000  -0.000000   0.000000  -0.000000  -0.000000   0.000000
    26  H    0.000137  -0.000026  -0.000044  -0.000027  -0.000000   0.000003
    27  C   -0.000719   0.002943  -0.013046  -0.001637  -0.000013  -0.002412
    28  H    0.000210   0.000125  -0.005573   0.006150   0.000000  -0.000511
    29  H    0.000047   0.000012  -0.004290  -0.000484  -0.000010   0.006695
    30  H    0.000004  -0.000058   0.001931  -0.000014   0.000001  -0.000066
    31  S    0.008774  -0.068201   0.276965  -0.089611   0.004789  -0.066535
               7          8          9         10         11         12
     1  C    0.583851   0.268658  -0.017246   0.001545   0.000064   0.000015
     2  C    0.000537  -0.060290   0.632835  -0.084301   0.004603  -0.005525
     3  C    0.001783  -0.010501  -0.013425   0.006063  -0.000175   0.000041
     4  N   -0.089942  -0.106851  -0.014509  -0.000220   0.000000   0.000014
     5  H    0.000004   0.004118  -0.027093  -0.008156   0.000084   0.005060
     6  H   -0.000115  -0.000188   0.003748  -0.000061   0.000009   0.000000
     7  O    8.100545  -0.088840   0.000567  -0.000055  -0.000002   0.000001
     8  N   -0.088840   7.111236   0.309400  -0.069402  -0.003478   0.004835
     9  C    0.000567   0.309400   4.330866   0.341619  -0.023657  -0.025902
    10  N   -0.000055  -0.069402   0.341619   6.980112   0.296623   0.316562
    11  H   -0.000002  -0.003478  -0.023657   0.296623   0.419885  -0.026431
    12  H    0.000001   0.004835  -0.025902   0.316562  -0.026431   0.398082
    13  H    0.007226   0.006498   0.000553   0.000010  -0.000002  -0.000001
    14  S    0.000041   0.000199  -0.000026  -0.000000   0.000001   0.000000
    15  C   -0.004060   0.000066  -0.000002   0.000000  -0.000000   0.000000
    16  H    0.000029   0.000001   0.000000   0.000000  -0.000000  -0.000000
    17  H    0.015018  -0.000518   0.000005  -0.000000   0.000000   0.000000
    18  H    0.000038  -0.000001   0.000000   0.000000   0.000000   0.000000
    19  C   -0.011868   0.284066  -0.034885  -0.006139   0.000769   0.000187
    20  H    0.000593  -0.040136  -0.000653   0.001545  -0.000076   0.000030
    21  H    0.021004  -0.034869   0.003617   0.000425  -0.000164  -0.000002
    22  H    0.000419  -0.040669  -0.005194   0.001060   0.002686   0.000046
    23  C    0.000002  -0.000051  -0.000014   0.000001  -0.000000  -0.000000
    24  H    0.000000  -0.000001   0.000000  -0.000000   0.000000   0.000000
    25  H    0.000000   0.000000   0.000000   0.000000   0.000000   0.000000
    26  H   -0.000023   0.000166   0.000079  -0.000004   0.000000  -0.000000
    27  C   -0.000008  -0.000050   0.000090   0.000000   0.000000   0.000000
    28  H    0.000003   0.000011  -0.000012   0.000000   0.000000  -0.000000
    29  H   -0.000001  -0.000004   0.000007  -0.000000   0.000000   0.000000
    30  H   -0.000000   0.000001  -0.000002  -0.000000  -0.000000  -0.000000
    31  S   -0.000051  -0.000660  -0.002134  -0.000244  -0.000012  -0.000000
              13         14         15         16         17         18
     1  C   -0.017389   0.000086   0.000049  -0.000009   0.001588  -0.000001
     2  C    0.004589  -0.000002  -0.000001  -0.000000   0.000004   0.000000
     3  C   -0.030471   0.000002   0.000003   0.000000  -0.000023  -0.000000
     4  N    0.295530  -0.000004   0.000015   0.000000  -0.000173   0.000000
     5  H   -0.000150  -0.000000   0.000000  -0.000000  -0.000000   0.000000
     6  H   -0.004044   0.000000  -0.000000   0.000000   0.000000   0.000000
     7  O    0.007226   0.000041  -0.004060   0.000029   0.015018   0.000038
     8  N    0.006498   0.000199   0.000066   0.000001  -0.000518  -0.000001
     9  C    0.000553  -0.000026  -0.000002   0.000000   0.000005   0.000000
    10  N    0.000010  -0.000000   0.000000   0.000000  -0.000000   0.000000
    11  H   -0.000002   0.000001  -0.000000  -0.000000   0.000000   0.000000
    12  H   -0.000001   0.000000   0.000000  -0.000000   0.000000   0.000000
    13  H    0.398005  -0.000000   0.000001  -0.000000   0.000006  -0.000000
    14  S   -0.000000  15.662141   0.255458  -0.033227  -0.042316  -0.044522
    15  C    0.000001   0.255458   5.283247   0.370814   0.355884   0.361461
    16  H   -0.000000  -0.033227   0.370814   0.532465  -0.024841  -0.025286
    17  H    0.000006  -0.042316   0.355884  -0.024841   0.520268  -0.033495
    18  H   -0.000000  -0.044522   0.361461  -0.025286  -0.033495   0.574176
    19  C   -0.000126  -0.002495  -0.000221  -0.000022   0.000262   0.000002
    20  H    0.000003   0.004000  -0.000229   0.000003   0.000005   0.000006
    21  H   -0.000037   0.000562   0.000315   0.000109   0.000796   0.000005
    22  H    0.000003   0.000206   0.000012  -0.000000  -0.000020   0.000000
    23  C    0.000000   0.255434  -0.025337   0.002664  -0.002667  -0.004244
    24  H   -0.000000  -0.032789   0.002672  -0.000070  -0.000013   0.000000
    25  H   -0.000000  -0.046020  -0.003876   0.000006  -0.000972   0.006340
    26  H   -0.000001  -0.041499  -0.002923  -0.000016   0.004615  -0.001201
    27  C    0.001758   0.000001  -0.000004   0.000000   0.000004   0.000000
    28  H    0.003141  -0.000003   0.000011  -0.000000  -0.000003  -0.000001
    29  H   -0.000028   0.000000  -0.000000   0.000000   0.000000   0.000000
    30  H   -0.000070  -0.000000   0.000000  -0.000000  -0.000000   0.000000
    31  S   -0.001074   0.000092  -0.000062   0.000001   0.000272   0.000004
              19         20         21         22         23         24
     1  C   -0.037305   0.001953  -0.001610   0.001971  -0.000007  -0.000000
     2  C    0.004766   0.000504  -0.000158  -0.000305   0.000005  -0.000000
     3  C   -0.000211  -0.000095  -0.000085   0.000046  -0.000002   0.000000
     4  N    0.003901   0.000026   0.000942  -0.000138   0.000003  -0.000000
     5  H   -0.000136  -0.000008   0.000002   0.000003   0.000000  -0.000000
     6  H    0.000005   0.000001   0.000001  -0.000000  -0.000000   0.000000
     7  O   -0.011868   0.000593   0.021004   0.000419   0.000002   0.000000
     8  N    0.284066  -0.040136  -0.034869  -0.040669  -0.000051  -0.000001
     9  C   -0.034885  -0.000653   0.003617  -0.005194  -0.000014   0.000000
    10  N   -0.006139   0.001545   0.000425   0.001060   0.000001  -0.000000
    11  H    0.000769  -0.000076  -0.000164   0.002686  -0.000000   0.000000
    12  H    0.000187   0.000030  -0.000002   0.000046  -0.000000   0.000000
    13  H   -0.000126   0.000003  -0.000037   0.000003   0.000000  -0.000000
    14  S   -0.002495   0.004000   0.000562   0.000206   0.255434  -0.032789
    15  C   -0.000221  -0.000229   0.000315   0.000012  -0.025337   0.002672
    16  H   -0.000022   0.000003   0.000109  -0.000000   0.002664  -0.000070
    17  H    0.000262   0.000005   0.000796  -0.000020  -0.002667  -0.000013
    18  H    0.000002   0.000006   0.000005   0.000000  -0.004244   0.000000
    19  C    5.009061   0.378669   0.369700   0.367687  -0.000036  -0.000000
    20  H    0.378669   0.517292  -0.020032  -0.039737   0.000098   0.000006
    21  H    0.369700  -0.020032   0.470787  -0.026567  -0.000042   0.000000
    22  H    0.367687  -0.039737  -0.026567   0.597678   0.000001  -0.000000
    23  C   -0.000036   0.000098  -0.000042   0.000001   5.265314   0.369760
    24  H   -0.000000   0.000006   0.000000  -0.000000   0.369760   0.534352
    25  H   -0.000003   0.000006   0.000001   0.000000   0.365187  -0.026337
    26  H    0.000202  -0.000064  -0.000027  -0.000001   0.365687  -0.023921
    27  C   -0.000001   0.000000  -0.000000  -0.000000   0.000005   0.000000
    28  H   -0.000000   0.000000  -0.000000  -0.000000   0.000012  -0.000000
    29  H   -0.000000   0.000000   0.000000  -0.000000  -0.000000   0.000000
    30  H    0.000000  -0.000000   0.000000   0.000000   0.000002  -0.000000
    31  S    0.000035   0.000004   0.000021   0.000018  -0.002450   0.000056
              25         26         27         28         29         30
     1  C    0.000000   0.000137  -0.000719   0.000210   0.000047   0.000004
     2  C   -0.000000  -0.000026   0.002943   0.000125   0.000012  -0.000058
     3  C    0.000000  -0.000044  -0.013046  -0.005573  -0.004290   0.001931
     4  N   -0.000000  -0.000027  -0.001637   0.006150  -0.000484  -0.000014
     5  H   -0.000000  -0.000000  -0.000013   0.000000  -0.000010   0.000001
     6  H    0.000000   0.000003  -0.002412  -0.000511   0.006695  -0.000066
     7  O    0.000000  -0.000023  -0.000008   0.000003  -0.000001  -0.000000
     8  N    0.000000   0.000166  -0.000050   0.000011  -0.000004   0.000001
     9  C    0.000000   0.000079   0.000090  -0.000012   0.000007  -0.000002
    10  N    0.000000  -0.000004   0.000000   0.000000  -0.000000  -0.000000
    11  H    0.000000   0.000000   0.000000   0.000000   0.000000  -0.000000
    12  H    0.000000  -0.000000   0.000000  -0.000000   0.000000  -0.000000
    13  H   -0.000000  -0.000001   0.001758   0.003141  -0.000028  -0.000070
    14  S   -0.046020  -0.041499   0.000001  -0.000003   0.000000  -0.000000
    15  C   -0.003876  -0.002923  -0.000004   0.000011  -0.000000   0.000000
    16  H    0.000006  -0.000016   0.000000  -0.000000   0.000000  -0.000000
    17  H   -0.000972   0.004615   0.000004  -0.000003   0.000000  -0.000000
    18  H    0.006340  -0.001201   0.000000  -0.000001   0.000000   0.000000
    19  C   -0.000003   0.000202  -0.000001  -0.000000  -0.000000   0.000000
    20  H    0.000006  -0.000064   0.000000   0.000000   0.000000  -0.000000
    21  H    0.000001  -0.000027  -0.000000  -0.000000   0.000000   0.000000
    22  H    0.000000  -0.000001  -0.000000  -0.000000  -0.000000   0.000000
    23  C    0.365187   0.365687   0.000005   0.000012  -0.000000   0.000002
    24  H   -0.026337  -0.023921   0.000000  -0.000000   0.000000  -0.000000
    25  H    0.572284  -0.036092  -0.000001  -0.000001   0.000000   0.000001
    26  H   -0.036092   0.524890  -0.000123  -0.000025   0.000004   0.000003
    27  C   -0.000001  -0.000123   5.289383   0.362914   0.364030   0.372844
    28  H   -0.000001  -0.000025   0.362914   0.569247  -0.038236  -0.026934
    29  H    0.000000   0.000004   0.364030  -0.038236   0.570849  -0.025267
    30  H    0.000001   0.000003   0.372844  -0.026934  -0.025267   0.517608
    31  S    0.000077   0.008055   0.222707  -0.044203  -0.044552  -0.028520
              31
     1  C    0.008774
     2  C   -0.068201
     3  C    0.276965
     4  N   -0.089611
     5  H    0.004789
     6  H   -0.066535
     7  O   -0.000051
     8  N   -0.000660
     9  C   -0.002134
    10  N   -0.000244
    11  H   -0.000012
    12  H   -0.000000
    13  H   -0.001074
    14  S    0.000092
    15  C   -0.000062
    16  H    0.000001
    17  H    0.000272
    18  H    0.000004
    19  C    0.000035
    20  H    0.000004
    21  H    0.000021
    22  H    0.000018
    23  C   -0.002450
    24  H    0.000056
    25  H    0.000077
    26  H    0.008055
    27  C    0.222707
    28  H   -0.044203
    29  H   -0.044552
    30  H   -0.028520
    31  S   15.753604
 Mulliken charges:
               1
     1  C    0.752399
     2  C   -0.241367
     3  C   -0.135099
     4  N   -0.588728
     5  H    0.131641
     6  H    0.173410
     7  O   -0.536697
     8  N   -0.532749
     9  C    0.541367
    10  N   -0.776982
    11  H    0.329272
    12  H    0.332988
    13  H    0.336070
    14  S    0.064680
    15  C   -0.593294
    16  H    0.177381
    17  H    0.206316
    18  H    0.166718
    19  C   -0.325864
    20  H    0.196286
    21  H    0.215308
    22  H    0.140797
    23  C   -0.589326
    24  H    0.176284
    25  H    0.169399
    26  H    0.202177
    27  C   -0.598667
    28  H    0.173678
    29  H    0.171228
    30  H    0.188538
    31  S    0.072835
 Sum of Mulliken charges =  -0.00000
 Mulliken charges with hydrogens summed into heavy atoms:
               1
     1  C    0.752399
     2  C   -0.109726
     3  C    0.038312
     4  N   -0.252658
     7  O   -0.536697
     8  N   -0.532749
     9  C    0.541367
    10  N   -0.114722
    14  S    0.064680
    15  C   -0.042878
    19  C    0.226526
    23  C   -0.041465
    27  C   -0.065223
    31  S    0.072835
 Electronic spatial extent (au):  <R**2>=           4304.2578
 Charge=             -0.0000 electrons
 Dipole moment (field-independent basis, Debye):
    X=             -3.7769    Y=              0.5608    Z=             -1.0739  Tot=              3.9664
 Quadrupole moment (field-independent basis, Debye-Ang):
   XX=           -102.6908   YY=           -105.0309   ZZ=            -81.3789
   XY=              0.3536   XZ=              5.2908   YZ=              6.9166
 Traceless Quadrupole moment (field-independent basis, Debye-Ang):
   XX=             -6.3239   YY=             -8.6640   ZZ=             14.9879
   XY=              0.3536   XZ=              5.2908   YZ=              6.9166
 Octapole moment (field-independent basis, Debye-Ang**2):
  XXX=            -52.5638  YYY=             -0.4652  ZZZ=            -45.0773  XYY=            -21.8280
  XXY=             31.7947  XXZ=            -19.2423  XZZ=            -19.8916  YZZ=              0.2179
  YYZ=             10.0969  XYZ=            -17.4737
 Hexadecapole moment (field-independent basis, Debye-Ang**3):
 XXXX=          -3002.5637 YYYY=          -1035.4110 ZZZZ=          -1474.0010 XXXY=            476.8891
 XXXZ=            -60.6213 YYYX=            309.4778 YYYZ=             53.2305 ZZZX=            -31.6734
 ZZZY=             65.3837 XXYY=           -713.5512 XXZZ=           -725.9119 YYZZ=           -467.7022
 XXYZ=             79.6875 YYXZ=            -30.1586 ZZXY=            127.0747
 N-N= 1.169606324144D+03 E-N=-5.521182099581D+03  KE= 1.342994266585D+03
 Calling FoFJK, ICntrl=      2127 FMM=F ISym2X=0 I1Cent= 0 IOpClX= 0 NMat=1 NMatS=1 NMatT=0.
 -------------------------------------------------------------------
 Center     Atomic                   Forces (Hartrees/Bohr)
 Number     Number              X              Y              Z
 -------------------------------------------------------------------
      1        6           0.000176867   -0.000117534   -0.000039679
      2        6           0.000103964   -0.000057217    0.000102166
      3        6           0.000106249   -0.000035507    0.000088776
      4        7           0.000340764   -0.000251616    0.000220097
      5        1           0.000017027   -0.000013811    0.000021556
      6        1           0.000018874    0.000006897   -0.000002068
      7        8           0.000243131   -0.000144493   -0.000230533
      8        7           0.000143906   -0.000125631   -0.000248138
      9        6           0.000045317   -0.000065319    0.000023205
     10        7          -0.000033752   -0.000195796    0.000131394
     11        1          -0.000004175   -0.000024422    0.000009441
     12        1          -0.000003048   -0.000014043    0.000016861
     13        1           0.000032387   -0.000023797    0.000017548
     14       16           0.000120339   -0.000054160    0.000265323
     15        6           0.000258359   -0.000006278    0.000047490
     16        1           0.000026397   -0.000015247    0.000010291
     17        1           0.000035205    0.000007204    0.000000071
     18        1           0.000015286    0.000000517    0.000004201
     19        6          -0.000035532    0.000454297   -0.001151903
     20        1          -0.000102149    0.000470236   -0.000312574
     21        1          -0.000117183   -0.000157963   -0.000151506
     22        1          -0.000018535    0.000135024    0.000385562
     23        6          -0.000145199    0.000216165   -0.000005899
     24        1          -0.000021314    0.000021262    0.000002092
     25        1          -0.000020469    0.000019819   -0.000000591
     26        1           0.000000101    0.000025269   -0.000011033
     27        6          -0.000314115    0.000043724    0.000175194
     28        1          -0.000021625   -0.000021208    0.000026453
     29        1          -0.000003632    0.000013867   -0.000006808
     30        1          -0.000054756    0.000015574    0.000008715
     31       16          -0.000788691   -0.000105813    0.000604294
 -------------------------------------------------------------------
 Cartesian Forces:  Max     0.001151903 RMS     0.000209352

 GradGradGradGradGradGradGradGradGradGradGradGradGradGradGradGradGradGrad
 Berny optimization.
 FormGI is forming the generalized inverse of G from B-inverse, IUseBI=4.
 Internal  Forces:  Max     0.001440443 RMS     0.000384149
 Search for a local minimum.
 Step number   1 out of a maximum of  162
 All quantities printed in internal units (Hartrees-Bohrs-Radians)
 Mixed Optimization -- En-DIIS/RFO-DIIS
 Second derivative matrix not updated -- first step.
 ITU=  0
     Eigenvalues ---    0.00230   0.00230   0.00230   0.00230   0.00230
     Eigenvalues ---    0.00418   0.00786   0.01243   0.01386   0.01537
     Eigenvalues ---    0.01625   0.01758   0.01833   0.01872   0.02072
     Eigenvalues ---    0.02126   0.02323   0.02594   0.04298   0.04829
     Eigenvalues ---    0.05636   0.06046   0.06544   0.06771   0.07204
     Eigenvalues ---    0.07570   0.07674   0.09460   0.09564   0.10106
     Eigenvalues ---    0.10117   0.10295   0.11004   0.11313   0.11341
     Eigenvalues ---    0.13005   0.13975   0.15451   0.15570   0.16000
     Eigenvalues ---    0.16000   0.16000   0.16000   0.16000   0.16000
     Eigenvalues ---    0.16000   0.16000   0.16000   0.16007   0.17787
     Eigenvalues ---    0.19350   0.19809   0.22209   0.23147   0.23837
     Eigenvalues ---    0.23980   0.24054   0.24761   0.24977   0.25000
     Eigenvalues ---    0.25000   0.32302   0.33508   0.34028   0.34205
     Eigenvalues ---    0.34253   0.34263   0.34275   0.34298   0.34376
     Eigenvalues ---    0.34407   0.34412   0.34439   0.34465   0.34478
     Eigenvalues ---    0.35298   0.35658   0.36623   0.42168   0.43028
     Eigenvalues ---    0.45150   0.45452   0.45543   0.46464   0.47061
     Eigenvalues ---    0.53424   0.87865
 RFO step:  Lambda=-9.51142489D-04 EMin= 2.30000000D-03
 Linear search not attempted -- first point.
 Iteration  1 RMS(Cart)=  0.13667551 RMS(Int)=  0.00454398
 Iteration  2 RMS(Cart)=  0.00824953 RMS(Int)=  0.00008481
 Iteration  3 RMS(Cart)=  0.00002403 RMS(Int)=  0.00008400
 Iteration  4 RMS(Cart)=  0.00000000 RMS(Int)=  0.00008400
 Variable       Old X    -DE/DX   Delta X   Delta X   Delta X     New X
                                 (Linear)    (Quad)   (Total)
    R1        2.61229   0.00074   0.00000   0.00140   0.00140   2.61369
    R2        2.31710   0.00029   0.00000   0.00031   0.00035   2.31745
    R3        2.63828   0.00008   0.00000  -0.00044  -0.00033   2.63796
    R4        2.81130   0.00015   0.00000   0.00112   0.00111   2.81241
    R5        2.04620  -0.00002   0.00000  -0.00004  -0.00004   2.04616
    R6        2.55204   0.00030   0.00000   0.00063   0.00063   2.55267
    R7        2.73417   0.00068   0.00000   0.00230   0.00229   2.73646
    R8        2.06552  -0.00001   0.00000  -0.00004  -0.00004   2.06548
    R9        3.58294   0.00033   0.00000   0.00166   0.00166   3.58461
   R10        1.91350   0.00000   0.00000   0.00000   0.00000   1.91350
   R11        4.92910  -0.00019   0.00000  -0.01288  -0.01289   4.91620
   R12        2.65615   0.00019   0.00000  -0.00001  -0.00000   2.65615
   R13        2.76833  -0.00007   0.00000  -0.00022  -0.00015   2.76818
   R14        2.63612   0.00003   0.00000   0.00006   0.00006   2.63618
   R15        1.91802  -0.00001   0.00000  -0.00003  -0.00003   1.91799
   R16        1.91454   0.00000   0.00000   0.00000   0.00000   1.91454
   R17        3.45575  -0.00030   0.00000  -0.00123  -0.00123   3.45452
   R18        3.45376   0.00006   0.00000   0.00023   0.00023   3.45399
   R19        2.06649   0.00000   0.00000   0.00001   0.00001   2.06650
   R20        2.06701   0.00016   0.00000   0.00046   0.00046   2.06747
   R21        2.06889   0.00001   0.00000   0.00004   0.00004   2.06893
   R22        5.14753   0.00055   0.00000   0.05065   0.05058   5.19811
   R23        2.06531  -0.00053   0.00000  -0.00154  -0.00154   2.06378
   R24        2.05541   0.00005   0.00000   0.00019   0.00013   2.05554
   R25        2.07283  -0.00037   0.00000  -0.00107  -0.00107   2.07175
   R26        2.06640  -0.00002   0.00000  -0.00005  -0.00005   2.06635
   R27        2.06904  -0.00000   0.00000  -0.00000  -0.00000   2.06904
   R28        2.06830   0.00002   0.00000   0.00005   0.00005   2.06835
   R29        2.06869  -0.00004   0.00000  -0.00010  -0.00010   2.06859
   R30        2.06985   0.00001   0.00000   0.00004   0.00004   2.06990
   R31        2.06595  -0.00002   0.00000  -0.00005  -0.00005   2.06590
   R32        3.45961   0.00015   0.00000   0.00065   0.00065   3.46026
    A1        2.13166   0.00040   0.00000   0.00055   0.00056   2.13222
    A2        2.00380  -0.00014   0.00000   0.00152   0.00138   2.00518
    A3        2.14718  -0.00028   0.00000  -0.00264  -0.00266   2.14451
    A4        2.09375  -0.00035   0.00000  -0.00338  -0.00337   2.09038
    A5        2.07071   0.00064   0.00000   0.00745   0.00726   2.07797
    A6        2.11716  -0.00027   0.00000  -0.00308  -0.00307   2.11410
    A7        1.89501  -0.00094   0.00000   0.00310   0.00289   1.89790
    A8        1.95545   0.00013   0.00000  -0.00539  -0.00535   1.95010
    A9        1.89283   0.00035   0.00000   0.00460   0.00457   1.89740
   A10        1.88878   0.00032   0.00000  -0.00265  -0.00260   1.88618
   A11        1.98402   0.00119   0.00000   0.01102   0.01104   1.99506
   A12        1.84887  -0.00101   0.00000  -0.01109  -0.01109   1.83778
   A13        2.11870   0.00079   0.00000   0.01172   0.01148   2.13019
   A14        1.93590  -0.00007   0.00000   0.00326   0.00314   1.93904
   A15        2.05355  -0.00034   0.00000   0.00168   0.00158   2.05513
   A16        1.90618   0.00033   0.00000  -0.00006  -0.00022   1.90596
   A17        2.10916  -0.00028   0.00000   0.00106   0.00094   2.11011
   A18        2.05748  -0.00008   0.00000  -0.00114  -0.00112   2.05636
   A19        2.11303   0.00038   0.00000   0.00116   0.00117   2.11420
   A20        2.11304   0.00023   0.00000   0.00336   0.00324   2.11627
   A21        2.17234  -0.00025   0.00000  -0.00205  -0.00200   2.17034
   A22        1.99702   0.00003   0.00000  -0.00102  -0.00097   1.99604
   A23        2.00350   0.00003   0.00000   0.00029   0.00029   2.00380
   A24        1.96485  -0.00000   0.00000   0.00007   0.00007   1.96492
   A25        1.93553   0.00000   0.00000   0.00015   0.00015   1.93567
   A26        1.74328  -0.00100   0.00000  -0.00400  -0.00400   1.73928
   A27        1.86508   0.00033   0.00000   0.00466   0.00466   1.86974
   A28        1.95258  -0.00043   0.00000  -0.00318  -0.00319   1.94939
   A29        1.93273  -0.00008   0.00000  -0.00335  -0.00337   1.92936
   A30        1.89478   0.00037   0.00000   0.00462   0.00462   1.89940
   A31        1.89422  -0.00004   0.00000   0.00064   0.00065   1.89487
   A32        1.92231  -0.00011   0.00000  -0.00286  -0.00288   1.91944
   A33        2.80903   0.00094   0.00000   0.00909   0.00876   2.81779
   A34        0.86960  -0.00022   0.00000  -0.00662  -0.00661   0.86299
   A35        2.03578   0.00081   0.00000  -0.00255  -0.00186   2.03392
   A36        1.92947  -0.00008   0.00000   0.00029   0.00032   1.92979
   A37        1.86895   0.00001   0.00000  -0.00018  -0.00035   1.86860
   A38        1.94842   0.00006   0.00000  -0.00038  -0.00033   1.94809
   A39        1.91610  -0.00001   0.00000  -0.00002   0.00005   1.91614
   A40        1.90933  -0.00000   0.00000  -0.00007  -0.00008   1.90925
   A41        1.89072   0.00003   0.00000   0.00037   0.00040   1.89111
   A42        2.21945   0.00050   0.00000   0.00398   0.00387   2.22332
   A43        1.86851   0.00005   0.00000   0.00034   0.00034   1.86884
   A44        1.93637   0.00003   0.00000   0.00020   0.00020   1.93657
   A45        1.94751  -0.00005   0.00000  -0.00039  -0.00039   1.94712
   A46        1.89655   0.00001   0.00000   0.00019   0.00019   1.89674
   A47        1.90073  -0.00001   0.00000  -0.00008  -0.00008   1.90065
   A48        1.91272  -0.00002   0.00000  -0.00022  -0.00022   1.91250
   A49        1.91669  -0.00001   0.00000  -0.00011  -0.00011   1.91658
   A50        1.88733   0.00001   0.00000   0.00020   0.00020   1.88754
   A51        1.95070   0.00004   0.00000   0.00027   0.00027   1.95098
   A52        1.89132  -0.00003   0.00000  -0.00028  -0.00028   1.89104
   A53        1.94678  -0.00003   0.00000  -0.00026  -0.00026   1.94652
   A54        1.86851   0.00003   0.00000   0.00018   0.00018   1.86869
   A55        1.76151  -0.00012   0.00000  -0.00046  -0.00046   1.76104
    D1       -2.66711  -0.00041   0.00000  -0.02807  -0.02815  -2.69526
    D2       -0.14281   0.00002   0.00000  -0.00184  -0.00184  -0.14464
    D3        0.50905   0.00004   0.00000  -0.00990  -0.00999   0.49906
    D4        3.03336   0.00047   0.00000   0.01632   0.01632   3.04967
    D5        1.90486   0.00007   0.00000   0.00333   0.00335   1.90821
    D6       -1.27416  -0.00042   0.00000  -0.01625  -0.01617  -1.29033
    D7        0.03814  -0.00022   0.00000  -0.02132  -0.02136   0.01678
    D8       -3.01440  -0.00050   0.00000  -0.03505  -0.03504  -3.04944
    D9       -3.06854   0.00022   0.00000  -0.00305  -0.00313  -3.07167
   D10        0.16211  -0.00005   0.00000  -0.01678  -0.01681   0.14529
   D11       -2.63662   0.00002   0.00000  -0.01493  -0.01489  -2.65151
   D12       -0.55157  -0.00012   0.00000  -0.01951  -0.01951  -0.57108
   D13        1.48292  -0.00107   0.00000  -0.03332  -0.03330   1.44962
   D14        0.56419  -0.00035   0.00000  -0.03347  -0.03344   0.53075
   D15        2.64924  -0.00049   0.00000  -0.03805  -0.03807   2.61117
   D16       -1.59945  -0.00144   0.00000  -0.05186  -0.05185  -1.65130
   D17       -0.10634  -0.00038   0.00000   0.00281   0.00286  -0.10348
   D18        2.99011  -0.00001   0.00000   0.01106   0.01109   3.00120
   D19        3.09530  -0.00075   0.00000  -0.01599  -0.01595   3.07934
   D20       -0.09144  -0.00038   0.00000  -0.00774  -0.00772  -0.09915
   D21       -0.79239   0.00047   0.00000   0.03760   0.03760  -0.75479
   D22        3.00581  -0.00011   0.00000   0.00885   0.00880   3.01461
   D23       -2.91869   0.00068   0.00000   0.04388   0.04392  -2.87477
   D24        0.87950   0.00010   0.00000   0.01513   0.01512   0.89463
   D25        1.31584   0.00102   0.00000   0.05285   0.05289   1.36873
   D26       -1.16915   0.00044   0.00000   0.02410   0.02410  -1.14505
   D27       -3.08763   0.00052   0.00000   0.16373   0.16370  -2.92393
   D28        1.08610   0.00070   0.00000   0.14935   0.14936   1.23546
   D29       -0.98557   0.00030   0.00000   0.15365   0.15367  -0.83190
   D30        2.17194  -0.00032   0.00000  -0.06221  -0.06229   2.10966
   D31        1.30475   0.00020   0.00000   0.01208   0.01197   1.31671
   D32       -0.23086   0.00049   0.00000   0.02644   0.02646  -0.20440
   D33        2.95160   0.00016   0.00000   0.01901   0.01904   2.97064
   D34        2.81883   0.00076   0.00000   0.04049   0.04048   2.85931
   D35       -0.28189   0.00043   0.00000   0.03306   0.03306  -0.24884
   D36        2.10701   0.00025   0.00000   0.02390   0.02384   2.13085
   D37        0.02025   0.00030   0.00000   0.02387   0.02381   0.04406
   D38       -2.04647   0.00023   0.00000   0.02375   0.02373  -2.02274
   D39       -0.94532   0.00001   0.00000   0.01015   0.01014  -0.93519
   D40       -3.03209   0.00006   0.00000   0.01012   0.01011  -3.02198
   D41        1.18438  -0.00001   0.00000   0.01000   0.01003   1.19441
   D42        2.33245  -0.00017   0.00000  -0.00377  -0.00375   2.32870
   D43        0.09599  -0.00019   0.00000  -0.00430  -0.00428   0.09171
   D44       -0.85161   0.00019   0.00000   0.00410   0.00408  -0.84752
   D45       -3.08806   0.00016   0.00000   0.00356   0.00355  -3.08452
   D46        3.05507   0.00016   0.00000   0.07990   0.07990   3.13497
   D47       -1.15650   0.00057   0.00000   0.08663   0.08662  -1.06988
   D48        0.99515   0.00007   0.00000   0.07821   0.07822   1.07337
   D49        3.12354  -0.00002   0.00000  -0.00012  -0.00012   3.12342
   D50       -1.09288   0.00003   0.00000   0.00042   0.00042  -1.09246
   D51        1.04543  -0.00001   0.00000   0.00000   0.00000   1.04543
   D52       -1.58729  -0.00039   0.00000  -0.03482  -0.03477  -1.62205
   D53       -0.87730  -0.00058   0.00000  -0.09491  -0.09496  -0.97226
   D54        0.46662  -0.00001   0.00000  -0.02807  -0.02802   0.43861
   D55        1.17661  -0.00020   0.00000  -0.08816  -0.08821   1.08840
   D56        2.53837   0.00010   0.00000  -0.02618  -0.02613   2.51223
   D57       -3.03484  -0.00009   0.00000  -0.08627  -0.08632  -3.12116
   D58       -1.58772   0.00018   0.00000   0.01006   0.01010  -1.57762
   D59        1.83611  -0.00062   0.00000  -0.01622  -0.01598   1.82013
   D60        1.08605  -0.00035   0.00000  -0.03120  -0.03123   1.05482
   D61       -1.00929  -0.00025   0.00000  -0.03143  -0.03143  -1.04071
   D62       -3.09329  -0.00026   0.00000  -0.03155  -0.03160  -3.12489
   D63       -1.12727  -0.00003   0.00000  -0.01692  -0.01692  -1.14419
   D64        1.02603  -0.00005   0.00000  -0.01705  -0.01705   1.00898
   D65        3.09229  -0.00009   0.00000  -0.01743  -0.01743   3.07486
         Item               Value     Threshold  Converged?
 Maximum Force            0.001440     0.000450     NO 
 RMS     Force            0.000384     0.000300     NO 
 Maximum Displacement     0.561542     0.001800     NO 
 RMS     Displacement     0.137349     0.001200     NO 
 Predicted change in Energy=-5.518303D-04
 GradGradGradGradGradGradGradGradGradGradGradGradGradGradGradGradGradGrad

                          Input orientation:                          
 ---------------------------------------------------------------------
 Center     Atomic      Atomic             Coordinates (Angstroms)
 Number     Number       Type             X           Y           Z
 ---------------------------------------------------------------------
      1          6           0       -0.079701    1.505661   -0.688968
      2          6           0       -2.495826    0.049557   -0.958227
      3          6           0       -2.264615    0.848958    0.275641
      4          7           0       -1.229495    1.826081    0.009809
      5          1           0       -3.469015   -0.388796   -1.140334
      6          1           0       -3.165402    1.385019    0.585288
      7          8           0        0.968136    2.125467   -0.541320
      8          7           0       -0.224496    0.472226   -1.616176
      9          6           0       -1.467424   -0.154867   -1.809872
     10          7           0       -1.513937   -1.013269   -2.908517
     11          1           0       -1.147538   -0.622092   -3.770417
     12          1           0       -2.435035   -1.409280   -3.054093
     13          1           0       -1.041092    2.519344    0.723399
     14         16           0        3.416408   -1.706326    0.449729
     15          6           0        3.587271    0.047453    0.936387
     16          1           0        4.422023    0.460791    0.363518
     17          1           0        2.683858    0.620506    0.707444
     18          1           0        3.821846    0.129192    2.002663
     19          6           0        0.977829    0.000273   -2.307182
     20          1           0        1.126232   -1.067587   -2.133000
     21          1           0        1.818592    0.559642   -1.902935
     22          1           0        0.924158    0.189158   -3.385779
     23          6           0        2.007927   -2.183453    1.512403
     24          1           0        1.786301   -3.232896    1.299754
     25          1           0        2.266638   -2.087492    2.571951
     26          1           0        1.119097   -1.582505    1.296004
     27          6           0       -2.013248    0.792352    3.138915
     28          1           0       -1.241041    1.568055    3.123502
     29          1           0       -3.004312    1.256057    3.189357
     30          1           0       -1.870210    0.187310    4.038143
     31         16           0       -1.871638   -0.336024    1.703781
 ---------------------------------------------------------------------
                    Distance matrix (angstroms):
                    1          2          3          4          5
     1  C    0.000000
     2  C    2.833797   0.000000
     3  C    2.477010   1.488264   0.000000
     4  N    1.383107   2.386781   1.448071   0.000000
     5  H    3.908984   1.082780   2.233293   3.353202   0.000000
     6  H    3.340634   2.148076   1.093005   2.067232   2.493266
     7  O    1.226344   4.059833   3.570375   2.285378   5.135041
     8  N    1.395947   2.402184   2.807665   2.342385   3.390382
     9  C    2.437121   1.350815   2.447967   2.700371   2.123528
    10  N    3.650814   2.428444   3.764342   4.081598   2.709016
    11  H    3.893962   3.190205   4.447745   4.504484   3.515825
    12  H    4.431512   2.554321   4.026885   4.616100   2.402701
    13  H    1.986607   3.323246   2.118415   1.012581   4.222036
    14  S    4.882240   6.326135   6.231678   5.852849   7.188410
    15  C    4.267884   6.371314   5.943364   5.217595   7.368464
    16  H    4.739726   7.054982   6.698472   5.824842   8.077862
    17  H    3.220360   5.470792   4.972527   4.153845   6.503139
    18  H    4.935748   6.977549   6.367549   5.689195   7.956343
    19  C    2.450138   3.726713   4.231392   3.684331   4.613819
    20  H    3.187650   3.968301   4.579579   4.302836   4.749994
    21  H    2.443805   4.445994   4.637076   3.814877   5.425854
    22  H    3.164443   4.196283   4.899959   4.341400   4.967497
    23  C    4.776378   5.601262   5.383281   5.367966   6.344659
    24  H    5.467257   5.848897   5.841255   6.029281   6.454555
    25  H    5.389773   6.301603   5.867541   5.839827   7.040195
    26  H    3.861864   4.562110   4.289832   4.334586   5.330239
    27  C    4.347425   4.191801   2.874844   3.387355   4.671866
    28  H    3.985916   4.532199   3.110485   3.124387   5.193595
    29  H    4.863852   4.349328   3.033583   3.685707   4.654859
    30  H    5.223940   5.037269   3.840541   4.395858   5.450201
    31  S    3.511138   2.761263   1.896892   2.820743   3.262421
                    6          7          8          9         10
     6  H    0.000000
     7  O    4.347832   0.000000
     8  N    3.785309   2.304536   0.000000
     9  C    3.315293   3.569467   1.405573   0.000000
    10  N    4.548164   4.649298   2.353615   1.395005   0.000000
    11  H    5.203118   4.738377   2.586561   2.040677   1.014958
    12  H    4.646142   5.512715   3.239468   2.014425   1.013133
    13  H    2.412148   2.406585   3.214207   3.708184   5.088590
    14  S    7.272896   4.653907   4.719135   5.600415   6.005535
    15  C    6.892819   3.655357   4.607123   5.756112   6.475396
    16  H    7.646725   3.939444   5.050689   6.307793   6.936476
    17  H    5.900275   2.601542   3.725549   4.916424   5.776320
    18  H    7.239316   4.312845   5.439352   6.526293   7.341355
    19  C    5.239300   2.763116   1.464860   2.500129   2.756405
    20  H    5.641143   3.571279   2.112487   2.768488   2.752248
    21  H    5.631403   2.242561   2.064965   3.364088   3.819816
    22  H    5.824428   3.441245   2.128621   2.884701   2.760058
    23  C    6.352706   4.885257   4.671654   5.218309   5.772122
    24  H    6.808448   5.724596   5.125806   5.452593   5.790325
    25  H    6.746275   5.396998   5.504390   6.072779   6.744052
    26  H    5.260061   4.140966   3.808930   4.286573   4.993485
    27  C    2.863516   4.920363   5.090481   5.068100   6.330957
    28  H    3.190485   4.315332   4.969783   5.230477   6.566807
    29  H    2.612233   5.518529   5.606685   5.417105   6.674963
    30  H    3.877401   5.725744   5.895835   5.871848   7.058640
    31  S    2.426282   4.377640   3.793212   3.541464   4.675458
                   11         12         13         14         15
    11  H    0.000000
    12  H    1.670460   0.000000
    13  H    5.484007   5.625531   0.000000
    14  S    6.309897   6.826741   6.148211   0.000000
    15  C    6.709748   7.369815   5.251415   1.828051   0.000000
    16  H    7.020118   7.886474   5.849170   2.390625   1.093544
    17  H    6.022863   6.668752   4.181039   2.452997   1.094058
    18  H    7.654258   8.190619   5.567541   2.438260   1.094830
    19  C    2.654351   3.767274   4.427887   4.057056   4.163191
    20  H    2.837187   3.694291   5.071724   3.510468   4.089152
    21  H    3.698907   4.826506   4.349237   3.636296   3.384127
    22  H    2.257874   3.734863   5.116377   4.951292   5.078717
    23  C    6.348464   6.418110   5.659978   1.827771   2.793397
    24  H    6.413295   6.332554   6.435418   2.389604   3.759816
    25  H    7.350485   7.363292   5.964995   2.443581   2.996187
    26  H    5.632819   5.620071   4.671130   2.451357   2.979593
    27  C    7.105559   6.586230   3.124469   6.554104   6.063978
    28  H    7.234059   6.960806   2.589483   6.289871   5.514373
    29  H    7.444025   6.812398   3.395744   7.583332   7.070047
    30  H    7.883590   7.291634   4.136828   6.664151   6.278897
    31  S    5.529286   4.909853   3.131147   5.604802   5.525906
                   16         17         18         19         20
    16  H    0.000000
    17  H    1.779049   0.000000
    18  H    1.776786   1.792763   0.000000
    19  C    4.382601   3.518976   5.165251   0.000000
    20  H    4.408036   3.652941   5.079599   1.092103   0.000000
    21  H    3.453177   2.750721   4.410443   1.087746   1.783302
    22  H    5.134790   4.476279   6.118456   1.096325   1.785972
    23  C    3.760296   2.994500   2.979763   4.518738   3.912992
    24  H    4.633237   4.000643   3.992638   4.910906   4.111941
    25  H    4.002076   3.314169   2.767029   5.461294   4.947454
    26  H    3.994234   2.765526   3.276298   3.938031   3.467457
    27  C    7.016087   5.291917   5.981570   6.263697   6.411614
    28  H    6.396393   4.705318   5.381397   6.072368   6.338880
    29  H    7.985504   6.238517   7.019580   6.902636   7.126584
    30  H    7.291766   5.658687   6.045333   6.957690   6.973983
    31  S    6.483933   4.760270   5.720272   4.931570   4.923749
                   21         22         23         24         25
    21  H    0.000000
    22  H    1.770903   0.000000
    23  C    4.384627   5.549417   0.000000
    24  H    4.964031   5.865830   1.093465   0.000000
    25  H    5.218493   6.517663   1.094889   1.777964   0.000000
    26  H    3.912965   5.009579   1.094526   1.780159   1.788828
    27  C    6.336987   7.180796   5.260305   5.832813   5.189641
    28  H    5.970203   6.997155   5.217782   5.961542   5.096180
    29  H    7.048180   7.733276   6.305945   6.831637   6.272433
    30  H    7.003020   7.932409   5.199983   5.706720   4.943476
    31  S    5.237214   5.830601   4.301237   4.683548   4.576755
                   26         27         28         29         30
    26  H    0.000000
    27  C    4.341411   0.000000
    28  H    4.340049   1.094649   0.000000
    29  H    5.352076   1.095342   1.791871   0.000000
    30  H    4.425779   1.093228   1.771688   1.774498   0.000000
    31  S    3.265653   1.831091   2.457392   2.454507   2.392305
                   31
    31  S    0.000000
 Symmetry turned off by external request.
 Stoichiometry    C8H17N3OS2
 Framework group  C1[X(C8H17N3OS2)]
 Deg. of freedom    87
 Full point group                 C1      NOp   1
 Rotational constants (GHZ):      0.5514441      0.3481366      0.2813258
 Standard basis: 6-31G(d) (6D, 7F)
   252 basis functions,   508 primitive gaussians,   252 cartesian basis functions
    63 alpha electrons       63 beta electrons
       nuclear repulsion energy      1166.2744677701 Hartrees.
 NAtoms=   31 NActive=   31 NUniq=   31 SFac= 1.00D+00 NAtFMM=   60 NAOKFM=F Big=F
 Integral buffers will be    131072 words long.
 Raffenetti 2 integral format.
 Two-electron integral symmetry is turned off.
 One-electron integrals computed using PRISM.
 NBasis=   252 RedAO= T EigKep=  1.50D-03  NBF=   252
 NBsUse=   252 1.00D-06 EigRej= -1.00D+00 NBFU=   252
 Initial guess from the checkpoint file:  "/localscratch/enas93.61778895.0/Gau-112271.chk"
 B after Tr=     0.034529   -0.028209    0.019414
         Rot=    0.999992    0.000174   -0.001161    0.003696 Ang=   0.44 deg.
 ExpMin= 1.17D-01 ExpMax= 2.19D+04 ExpMxC= 3.30D+03 IAcc=1 IRadAn=         1 AccDes= 0.00D+00
 Harris functional with IExCor=  402 and IRadAn=       1 diagonalized for initial guess.
 HarFok:  IExCor=  402 AccDes= 0.00D+00 IRadAn=         1 IDoV= 1 UseB2=F ITyADJ=14
 ICtDFT=  3500011 ScaDFX=  1.000000  1.000000  1.000000  1.000000
 FoFCou: FMM=F IPFlag=           0 FMFlag=      100000 FMFlg1=           0
         NFxFlg=           0 DoJE=T BraDBF=F KetDBF=T FulRan=T
         wScrn=  0.000000 ICntrl=     500 IOpCl=  0 I1Cent=   200000004 NGrid=           0
         NMat0=    1 NMatS0=      1 NMatT0=    0 NMatD0=    1 NMtDS0=    0 NMtDT0=    0
 Symmetry not used in FoFCou.
 Keep R1 ints in memory in canonical form, NReq=516431061.
 Requested convergence on RMS density matrix=1.00D-08 within 128 cycles.
 Requested convergence on MAX density matrix=1.00D-06.
 Requested convergence on             energy=1.00D-06.
 No special actions if energy rises.
 Integral accuracy reduced to 1.0D-05 until final iterations.
 Initial convergence to 1.0D-05 achieved.  Increase integral accuracy.
 SCF Done:  E(RB3LYP) =  -1350.95038372     A.U. after   13 cycles
            NFock= 13  Conv=0.28D-08     -V/T= 2.0059
 Calling FoFJK, ICntrl=      2127 FMM=F ISym2X=0 I1Cent= 0 IOpClX= 0 NMat=1 NMatS=1 NMatT=0.
 -------------------------------------------------------------------
 Center     Atomic                   Forces (Hartrees/Bohr)
 Number     Number              X              Y              Z
 -------------------------------------------------------------------
      1        6          -0.001347760    0.002028856   -0.001088264
[...]
 00373,-0.00001840,-0.00000297,-0.00001309,-0.00196018,-0.00721024,-0.0
 2394147,-0.00078023,-0.00099065,0.00189756,0.00009217,-0.00022331,0.00
 041604,0.00000440,0.00031538,-0.00022787,0.00038026,0.00140040,0.00004
 630,0.00007472,-0.00004468,-0.00000474,0.00000947,0.00000372,0.0000163
 7,0.00018720,-0.00005139,-0.00008591,0.00000820,-0.00001930,0.00005085
 ,-0.12480562,-0.06632139,-0.19557517,0.00406393,0.00183319,0.00656161,
 0.12512377,0.07214417,0.21153595,-0.00116385,0.00038866,-0.00053040,0.
 00004689,-0.00001254,-0.00000070,-0.00008066,0.00000954,0.00001554,0.0
 0004854,-0.00017148,-0.00003043,0.00000536,0.00000445,-0.00000209,0.00
 000357,-0.00000341,-0.00000426,-0.00037516,0.00029458,-0.00029139,0.00
 010538,0.00003024,0.00011847,-0.00011012,-0.00000125,-0.00005468,0.000
 02019,-0.00000197,0.00001251,-0.00000532,0.00000638,-0.00000838,0.0000
 0045,-0.00000366,-0.00000242,0.00002185,0.00005545,0.00000727,-0.01000
 281,0.00569397,0.00754903,0.00086398,0.00052425,-0.00133723,0.00036229
 ,0.00016789,-0.00015092,-0.00009239,-0.00090421,0.00045343,-0.00028015
 ,-0.00019960,-0.00001632,0.00005126,-0.00003295,0.00000070,-0.00001396
 ,0.00000194,-0.00000812,-0.00003806,0.00010188,-0.00002223,-0.00000496
 ,-0.00000889,0.00002972,-0.23450248,0.12839173,-0.03035462,0.01087009,
 -0.00651927,0.00055912,-0.01286214,0.01019794,-0.00220248,0.24708366,0
 .00181431,0.00041430,0.00074189,-0.00010775,-0.00003053,0.00001662,0.0
 0029567,0.00016154,-0.00008268,-0.00061135,0.00018932,-0.00000140,-0.0
 0000426,0.00000074,-0.00001138,-0.00004683,-0.00002574,0.00001718,-0.0
 0090585,-0.00112694,-0.00005432,-0.00045945,-0.00034765,-0.00060803,0.
 00020843,-0.00005333,0.00008153,-0.00004016,-0.00006041,-0.00005348,-0
 .00000742,0.00002244,0.00000049,0.00000119,0.00001343,-0.00001154,0.00
 005768,-0.00001161,-0.00003267,-0.00263575,0.00137729,0.00146465,-0.00
 143572,0.00155023,-0.00047188,0.00007017,-0.00002789,-0.00009123,0.000
 53516,0.00013969,-0.00007414,-0.00001606,-0.00016992,0.00004511,-0.000
 27674,0.00008588,0.00000661,-0.00001673,-0.00001814,-0.00007082,0.0001
 1506,0.00017118,-0.00007777,0.00008592,-0.00005366,0.00004788,0.127458
 46,-0.14149226,0.01503754,0.02517393,-0.01507184,0.00273286,-0.0111960
 6,0.00813097,-0.00099575,-0.13801327,0.14632318,-0.00258412,-0.0001261
 8,-0.00129313,0.00020311,-0.00002235,-0.00003035,-0.00035210,-0.000133
 04,0.00003399,0.00108390,-0.00028445,-0.00008121,0.00002006,0.00000016
 ,0.00000604,0.00007332,0.00001287,-0.00002501,0.00141430,-0.00042835,0
 .00069363,0.00041211,0.00021104,0.00069770,-0.00053492,0.00004302,-0.0
 0021979,0.00011149,0.00004722,0.00010894,-0.00001200,0.00000063,-0.000
 04465,0.00000184,-0.00002612,-0.00000209,0.00000620,0.00004399,0.00007
 406,0.02562697,-0.01333841,-0.00925626,-0.00179142,-0.00141334,0.00186
 502,-0.00027964,-0.00055319,0.00006882,-0.00005685,0.00130350,0.000109
 00,-0.00001011,0.00032519,-0.00020618,-0.00020030,0.00001705,-0.000148
 14,0.00004492,0.00000336,0.00006032,0.00016424,-0.00007782,-0.00068960
 ,0.00005804,-0.00004506,0.00014375,-0.02547795,0.01478225,-0.04727115,
 -0.00512117,0.00223864,-0.00081337,-0.01919911,0.01493990,-0.00078715,
 0.02626645,-0.01762757,0.05710167,0.00004361,0.00106871,0.00090868,-0.
 00139267,-0.00125963,0.00255120,0.00114428,0.00539561,0.00878558,0.001
 35468,0.00078366,-0.00052365,0.00005849,-0.00039613,0.00058393,-0.0001
 7366,0.00020626,-0.00128310,-0.00000330,-0.00023708,-0.00028836,-0.000
 43612,-0.00012558,-0.00077301,0.00188616,-0.00096153,0.00004516,-0.000
 25566,0.00074817,0.00045141,0.00008990,-0.00009495,0.00004529,-0.00009
 504,-0.00011978,-0.00000665,-0.00008694,-0.00069607,0.00053231,-0.0000
 0116,-0.00000101,-0.00002090,0.00000442,0.00000351,-0.00001540,0.00000
 863,0.00000274,-0.00000476,0.00000185,0.00000314,0.00001875,-0.0000112
 4,-0.00000188,-0.00000030,0.00004476,-0.00009324,-0.00007437,0.0000054
 0,-0.00002327,-0.00001623,-0.00000082,0.00002410,0.00002869,-0.0000245
 7,0.00000695,0.00003402,-0.00002336,0.00000592,0.00001025,0.00000093,0
 .00000121,0.00000283,-0.00000953,-0.00000217,-0.00001393,0.00000384,0.
 00000039,0.00002853,0.54807422,0.00100674,-0.00016330,0.00140764,-0.00
 473274,-0.00254430,0.00512726,0.00136969,0.01217105,0.01357086,-0.0004
 1585,-0.00033304,0.00012883,0.00014707,0.00014326,0.00013451,-0.000453
 79,0.00188866,0.00080256,-0.00091585,0.00007958,-0.00070944,-0.0018108
 4,0.00024424,-0.00157905,0.00364975,-0.00290709,-0.00022026,-0.0002741
 3,0.00227535,0.00155725,0.00021375,-0.00034774,0.00001203,-0.00017568,
 -0.00025908,-0.00003805,0.00023795,0.00049001,-0.00004751,-0.00003761,
 0.00000257,-0.00004441,0.00002760,-0.00002429,0.00000034,0.00000353,0.
 00001003,0.00000261,0.00004598,0.00003413,0.00001356,-0.00001999,0.000
 00665,-0.00001019,0.00025140,-0.00017761,-0.00026645,-0.00003886,-0.00
 000182,0.00008623,-0.00003223,-0.00001276,0.00002220,-0.00006784,0.000
 04539,0.00008728,0.00001355,-0.00001049,0.00000930,-0.00001180,0.00002
 240,-0.00000248,-0.00001374,0.00000079,-0.00001840,0.00001222,-0.00003
 846,0.00006191,0.00932741,0.52117576,0.00084203,-0.00074643,-0.0012214
 4,0.00385031,0.00214781,-0.00364849,0.00406273,-0.00717118,-0.01557824
 ,-0.00271101,-0.00033716,0.00191491,-0.00016350,-0.00005810,-0.0001489
 3,-0.00149471,-0.00178723,0.00251660,-0.00044741,0.00012715,-0.0000626
 6,0.00094780,-0.00022492,0.00108387,-0.00267517,0.00218975,-0.00003634
 ,0.00020720,-0.00129631,-0.00077516,-0.00012883,0.00016878,0.00000837,
 0.00011116,0.00017706,-0.00000681,-0.00052742,-0.00015752,0.00075814,-
 0.00000294,-0.00001002,-0.00001154,0.00000391,0.00000927,-0.00000457,-
 0.00000192,-0.00000237,-0.00000032,0.00001380,0.00000473,0.00000541,-0
 .00001083,-0.00000689,-0.00000294,0.00002200,0.00001606,0.00003674,0.0
 0002265,0.00001905,-0.00004980,0.00004647,0.00000291,-0.00001346,-0.00
 000361,-0.00002343,0.00000575,0.00000200,-0.00000231,-0.00000577,0.000
 01237,-0.00001243,0.00001145,-0.00002716,0.00000057,-0.00000830,0.0000
 2008,0.00002320,0.00003390,0.00783696,-0.07972218,0.39202598,-0.000281
 09,0.00027951,0.00015054,0.00014900,0.00009563,-0.00023140,-0.00057314
 ,-0.00087988,0.00025916,0.00058175,0.00033466,-0.00064189,0.00000740,0
 .00001748,-0.00002934,-0.00005663,0.00009598,0.00005797,0.00021979,-0.
 00003570,0.00014341,-0.00003718,-0.00003892,0.00004472,-0.00012723,0.0
 0005835,0.00004275,0.00001902,-0.00009483,-0.00008653,-0.00001048,0.00
 001717,-0.00000217,0.00000509,0.00001251,0.00000675,0.00014823,-0.0002
 1338,0.00009403,0.00000858,0.00000089,0.00001008,-0.00000739,0.0000017
 5,0.00000013,-0.00000006,-0.00000134,0.00000022,-0.00001174,-0.0000068
 3,-0.00000341,0.00000695,0.00000044,0.00000252,-0.00002510,0.00003129,
 0.00002800,-0.00000264,0.00000210,-0.00000223,-0.00000644,0.00000420,0
 .00000131,0.00000927,-0.00000248,-0.00001278,-0.00000813,0.00000646,-0
 .00000306,0.00000037,-0.00000261,-0.00000270,0.00001079,-0.00000058,0.
 00000605,-0.00000888,0.00000258,-0.00001320,-0.27968764,-0.03820286,-0
 .08236880,0.29948785,-0.00076050,0.00054273,-0.00023918,0.00019084,-0.
 00002736,-0.00000827,0.00019905,-0.00066773,0.00130150,0.00115520,0.00
 009321,-0.00019525,0.00002132,-0.00007489,0.00004444,0.00012237,0.0000
 7263,-0.00011861,0.00055224,-0.00018554,0.00031362,0.00026416,-0.00008
 704,0.00008505,-0.00034064,0.00019046,0.00016035,0.00005064,-0.0001417
 7,-0.00016571,-0.00001871,0.00004735,-0.00001398,0.00000193,0.00000463
 ,0.00002687,-0.00027348,0.00015474,0.00015877,0.00000252,-0.00000351,0
 .00002137,-0.00001268,0.00001760,0.00000819,-0.00000273,-0.00000846,0.
 00000168,-0.00001806,-0.00001209,-0.00000754,0.00000878,-0.00000404,0.
 00000061,-0.00008783,0.00003378,0.00005019,0.00000567,-0.00000578,-0.0
 0002056,0.00000226,0.00001363,-0.00000652,0.00001948,-0.00000876,-0.00
 001889,0.00000369,-0.00000304,-0.00000133,0.00001191,-0.00002005,-0.00
 000193,0.00000537,0.00000364,0.00001086,-0.00000157,0.00003392,-0.0000
 4405,-0.04034837,-0.05708171,-0.01123529,0.04237549,0.05666469,0.00070
 931,-0.00076942,-0.00105910,0.00064406,0.00003337,-0.00006465,-0.00243
 124,-0.00093064,0.00139283,0.00052745,0.00054942,0.00085762,0.00004035
 ,-0.00009972,0.00022087,0.00000466,0.00038340,-0.00035962,-0.00001572,
 0.00006074,0.00035703,0.00047255,0.00040993,0.00073037,-0.00082152,0.0
 0030447,0.00009921,0.00009242,-0.00012409,-0.00012610,-0.00002806,0.00
 005806,-0.00002670,-0.00000405,-0.00002870,0.00003735,0.00103792,0.000
 91149,-0.00078896,-0.00000642,0.00000198,0.00000371,0.00000363,-0.0000
 1047,0.00001087,-0.00000543,0.00000039,0.00000285,0.00000890,0.0000048
 2,-0.00001014,0.00000325,0.00000331,-0.00000049,0.00003817,-0.00000982
 ,0.00007281,-0.00001768,0.00001924,0.00001847,0.00001250,-0.00002466,-
 0.00001972,-0.00001125,0.00000764,0.00000336,0.00002344,-0.00000739,-0
 .00000318,-0.00000191,0.00000434,-0.00000114,-0.00000180,0.00000081,0.
 00000504,0.00000345,-0.00000706,-0.00000688,-0.09079213,-0.01018867,-0
 .07403724,0.09031459,0.01651513,0.08140263,-0.00031223,0.00007569,-0.0
 0010676,0.00017820,-0.00032848,0.00001182,-0.00037998,0.00093942,-0.00
 035101,-0.00012541,-0.00044103,0.00021033,0.00000079,0.00003289,-0.000
 05507,-0.00004680,-0.00023749,0.00042442,0.00017098,-0.00005145,0.0001
 0573,0.00011293,-0.00002270,0.00001531,-0.00017365,-0.00000456,-0.0000
 0475,0.00004816,-0.00005401,-0.00007673,-0.00000807,0.00001466,-0.0000
 1603,0.00000877,0.00001633,0.00000468,-0.00029939,0.00037312,-0.000024
 36,-0.00000126,-0.00000200,0.00000825,-0.00000404,0.00000809,0.0000036
 5,-0.00000174,-0.00000318,0.00000114,-0.00000481,-0.00000341,-0.000003
 30,0.00000237,-0.00000221,-0.00000082,-0.00003234,0.00001966,0.0000105
 2,0.00000320,-0.00000362,-0.00000861,0.00000180,0.00000473,-0.00000338
 ,0.00000748,-0.00000540,-0.00000568,0.00000398,-0.00000310,-0.00000048
 ,0.00000410,-0.00000763,0.00000002,0.00000148,0.00000178,0.00000379,0.
 00000078,0.00001205,-0.00001602,-0.12144977,0.11621053,-0.01274705,-0.
 01353343,0.02667033,-0.00239887,0.12375865,-0.00034853,-0.00008393,0.0
 0000119,-0.00012791,0.00006211,-0.00006846,-0.00183161,0.00118228,0.00
 172804,0.00060383,-0.00005846,-0.00010692,0.00000509,-0.00003898,-0.00
 003243,0.00093016,0.00068736,-0.00139474,0.00023028,0.00002546,0.00008
 121,0.00024358,0.00007157,0.00002547,-0.00029284,0.00008279,0.00035286
 ,0.00000622,-0.00010043,-0.00015876,-0.00001340,0.00004616,-0.00000236
 ,0.00001109,-0.00000478,0.00001645,0.00012681,-0.00012099,-0.00007030,
 0.00001775,0.00000426,0.00001355,-0.00000693,-0.00000128,-0.00000218,0
 .00000103,0.00000046,-0.00000316,-0.00001556,-0.00001005,-0.00000221,0
 .00000666,0.00000290,0.00000549,-0.00008787,0.00002894,0.00006000,0.00
 000328,-0.00000650,0.00000517,-0.00001131,-0.00000303,-0.00000157,0.00
 002339,0.00000196,-0.00002809,-0.00000920,0.00000309,0.00000013,-0.000
 00602,0.00000393,-0.00000472,0.00001201,0.00000048,0.00000480,-0.00000
 736,-0.00000500,-0.00001899,0.11732143,-0.24501445,0.02117637,-0.00332
 312,0.00669584,0.00048600,-0.12707181,0.26122951,-0.00013428,-0.000221
 54,-0.00014789,-0.00057373,0.00020371,0.00038204,-0.00043412,-0.002010
 41,0.00272360,0.00015687,0.00053765,-0.00003414,0.00003407,-0.00003425
 ,-0.00000594,-0.00030981,0.00180317,-0.00010538,-0.00001831,0.00005414
 ,0.00007390,-0.00012606,0.00015401,-0.00008395,0.00024742,-0.00015140,
 0.00015384,-0.00004031,0.00018783,0.00012386,0.00001445,-0.00001759,0.
 00000761,-0.00001400,-0.00004675,0.00001234,0.00017424,0.00000005,-0.0
 0007018,0.00000278,0.00000165,0.00000663,-0.00000139,-0.00000385,0.000
 00508,-0.00000104,-0.00000034,0.00000026,-0.00000220,-0.00000108,-0.00
 000359,0.00000337,0.00000305,0.00000077,-0.00001791,-0.00000556,0.0000
 0865,-0.00001035,0.00000375,0.00002417,-0.00001544,-0.00000861,-0.0000
 0362,0.00000483,0.00001127,-0.00000796,0.00000275,0.00000125,0.0000008
 1,-0.00000338,0.00000140,-0.00000624,0.00000876,0.00000181,0.00000427,
 -0.00000538,-0.00000532,-0.00001317,-0.00678611,0.01503602,-0.04298822
 ,-0.00398019,0.00987659,-0.00012792,0.01271604,-0.01742807,0.05053762,
 0.00028387,-0.00008355,-0.00011618,0.00020865,0.00001912,-0.00000231,-
 0.00063682,0.00005720,-0.00085584,0.00018367,-0.00002868,0.00007858,-0
 .00000076,0.00002492,0.00000131,-0.00006411,-0.00013011,0.00012428,-0.
 00009390,0.00002075,0.00004053,0.00006054,0.00007523,0.00009725,-0.000
 08907,-0.00003139,-0.00010456,0.00002031,0.00000592,0.00001747,0.00000
 280,-0.00000953,-0.00000353,0.00000235,-0.00000066,-0.00000071,0.00033
 078,0.00029158,-0.00027178,-0.00000380,0.00000419,-0.00000498,0.000005
 46,-0.00000922,-0.00000019,-0.00000031,0.00000379,-0.00000016,0.000006
 93,0.00000497,-0.00000085,-0.00000136,0.00000245,0.00000010,0.00002166
 ,-0.00001768,0.00000817,0.00000322,0.00000088,0.00001099,0.00000295,-0
 .00001127,-0.00000474,-0.00000546,0.00000574,0.00000276,0.00000777,-0.
 00000595,0.00000121,-0.00000600,0.00001109,0.00000178,-0.00000206,-0.0
 0000171,-0.00000250,0.00000223,-0.00001499,0.00000817,-0.11089815,-0.0
 8189290,0.08347887,-0.01388827,-0.01895214,0.02014145,0.00905288,0.010
 46900,-0.01238108,0.11498601,-0.00003480,-0.00019580,-0.00041497,0.000
 83770,0.00067670,-0.00138298,-0.00043203,-0.00359824,-0.00193041,0.000
 17725,0.00044316,0.00030482,-0.00000960,0.00000248,-0.00007972,-0.0001
 6499,0.00028553,-0.00009980,0.00008854,0.00003132,0.00015583,0.0004564
 9,-0.00001107,0.00046744,-0.00100174,0.00070902,0.00010840,0.00006540,
 -0.00050276,-0.00033455,-0.00005290,0.00008937,-0.00000507,0.00004050,
 0.00004768,0.00000670,0.00023135,-0.00009492,-0.00006272,0.00000470,-0
 .00000180,0.00000710,-0.00000363,0.00000327,0.00000304,-0.00000227,-0.
 00000242,0.00000068,-0.00000501,-0.00000496,-0.00000494,0.00000357,-0.
 00000156,0.00000103,-0.00003799,0.00004567,0.00005839,0.00000474,0.000
 00498,-0.00001020,0.00000888,-0.00000365,-0.00001070,0.00001609,-0.000
 01091,-0.00001904,0.00000311,0.00000334,-0.00000328,0.00000383,-0.0000
 0558,0.00000093,-0.00000048,-0.00000046,0.00000404,-0.00000116,0.00000
 751,-0.00000892,-0.08010204,-0.14908646,0.10801563,-0.00124704,-0.0027
 7133,0.00260267,-0.01447836,-0.01557999,0.01762792,0.08869998,0.160057
 83,-0.00016901,-0.00037510,-0.00067519,0.00191275,0.00105462,-0.001850
 90,-0.00124976,-0.00537598,-0.00339426,-0.00018507,0.00012542,0.000452
 66,-0.00005340,-0.00002939,-0.00009267,-0.00022782,-0.00032791,0.00048
 477,0.00028457,0.00005467,0.00027920,0.00068678,0.00002268,0.00071717,
 -0.00164687,0.00122056,0.00014386,0.00015346,-0.00085864,-0.00060445,-
 0.00008776,0.00013727,-0.00001426,0.00007190,0.00009798,0.00002929,0.0
 0016316,0.00004798,-0.00010634,0.00001762,-0.00000142,0.00001805,-0.00
 000966,0.00000732,0.00000104,-0.00000244,-0.00000345,-0.00000122,-0.00
 001640,-0.00001320,-0.00000663,0.00000762,-0.00000172,0.00000434,-0.00
 008836,0.00008247,0.00012041,0.00000143,0.00001008,-0.00002045,0.00000
 923,-0.00000102,-0.00001289,0.00002752,-0.00001346,-0.00003696,-0.0000
 0322,0.00000611,-0.00000445,0.00000291,-0.00000755,-0.00000029,0.00000
 491,0.00000020,0.00000757,-0.00000439,0.00001132,-0.00002263,0.0855390
 8,0.11244758,-0.15471087,-0.00546637,-0.00752751,0.00903527,0.00018839
 ,0.00086306,-0.00033719,-0.08996961,-0.11524326,0.16689952,0.00701038,
 -0.00913736,-0.00417968,0.00349356,0.00198982,0.00636516,-0.02719364,-
 0.01087468,-0.00849668,-0.02850856,-0.02290507,0.01580608,-0.00025047,
 -0.00009350,-0.00010439,0.00458049,0.00042587,-0.00021956,-0.00225655,
 0.00173259,-0.00038807,0.00000839,0.00174028,0.00329024,-0.00214054,0.
 00108587,-0.00137548,0.00056949,-0.00062639,-0.00038867,-0.00014448,0.
 00012756,-0.00024436,0.00005884,-0.00000977,0.00004054,0.00018984,0.00
 080097,0.00065951,-0.00007060,-0.00000638,-0.00005361,0.00005445,-0.00
 005746,0.00003838,-0.00002059,0.00000877,0.00001604,0.00011021,0.00006
 507,-0.00001739,-0.00002574,0.00001240,-0.00002003,0.00047079,-0.00016
 824,0.00007802,-0.00017031,0.00015908,0.00005240,0.00011052,-0.0000866
 0,-0.00004216,-0.00016504,0.00004929,0.00015110,0.00010235,-0.00004361
 ,-0.00002753,-0.00000739,0.00002589,0.00000396,-0.00005361,0.00000993,
 -0.00001124,0.00005060,-0.00004259,0.00012528,-0.03817153,-0.00342044,
 0.00183004,0.00761138,-0.01084653,-0.01754199,0.00301638,0.00314185,0.
 01148954,0.00050795,0.00693191,0.01010882,0.07123343,0.00540522,-0.005
 37704,-0.00437183,0.00644769,0.01061596,0.00554404,0.00265588,-0.07676
 191,-0.01780228,-0.02790054,-0.00559141,0.00655167,-0.00051544,-0.0007
 8947,0.00004734,-0.01196639,-0.02479924,0.02112585,-0.00232500,0.00125
 942,0.00002551,-0.00072307,0.00143306,0.00337553,-0.00128275,0.0025153
 9,-0.00333962,0.00035430,-0.00199792,-0.00081699,-0.00017513,0.0000698
 4,-0.00006985,0.00013681,0.00012302,0.00003505,-0.00042639,-0.00040772
 ,0.00095796,-0.00004142,0.00000375,-0.00005796,0.00004817,-0.00006429,
 0.00000918,-0.00000530,0.00001912,0.00000502,0.00009046,0.00005669,0.0
 0000650,-0.00002808,0.00001789,-0.00001180,0.00048026,-0.00029091,0.00
 015355,-0.00016789,0.00017656,0.00002483,0.00004208,-0.00005489,0.0000
 0430,-0.00022377,0.00011457,0.00013465,0.00004530,-0.00001005,-0.00000
 142,-0.00003042,0.00004973,-0.00000531,-0.00001829,0.00000078,-0.00002
 148,0.00000148,-0.00008827,0.00011710,-0.01043649,-0.08058727,-0.03128
 460,0.00071309,-0.00346573,-0.01015661,-0.00165883,-0.00910123,-0.0255
 7051,0.00149297,0.00946406,0.01359030,0.04001148,0.18346751,-0.0016015
 3,-0.00005172,-0.00135565,0.00859924,0.00843403,-0.02791032,0.00002049
 ,0.02056154,-0.02833628,0.01046569,0.00357807,0.00275646,0.00039302,0.
 00088057,-0.00038881,0.00390638,0.00570443,-0.00400673,0.00075759,-0.0
 0017855,0.00050651,0.00340751,-0.00009655,0.00113222,-0.00504082,0.004
 09719,0.00177098,-0.00000926,-0.00319713,-0.00175009,-0.00028557,0.000
 44305,0.00029751,0.00024662,0.00040053,0.00001526,-0.00041069,-0.00060
 233,-0.00017808,0.00006297,-0.00000717,0.00006812,-0.00003822,0.000030
 96,0.00000593,-0.00000980,-0.00001516,-0.00000341,-0.00005861,-0.00004
 969,-0.00002487,0.00002830,-0.00000739,0.00001509,-0.00050333,0.000250
 34,0.00019214,0.00012922,-0.00004312,-0.00002646,0.00000615,-0.0000078
 4,-0.00003558,0.00017016,-0.00008196,-0.00015718,-0.00001228,0.0000197
 0,-0.00002040,0.00001600,-0.00003460,-0.00000073,0.00001539,0.00000311
 ,0.00002947,-0.00000933,0.00005019,-0.00008607,-0.00680374,-0.05766089
 ,-0.10509003,0.00168184,-0.00897060,-0.01761842,0.00211482,-0.00549681
 ,-0.01013005,-0.00029391,-0.00975407,-0.01630151,-0.01694430,0.0418018
 8,0.20663098\\-0.00000410,0.00000085,-0.00000280,-0.00000039,-0.000003
 88,0.00000034,0.00000334,0.00000254,-0.00000299,-0.00000249,-0.0000015
 3,0.00000168,0.00000020,-0.00000092,-0.00000058,-0.00000142,-0.0000019
 7,-0.00000026,0.00000497,0.00000088,0.00000131,-0.00000356,-0.00000220
 ,0.00000315,-0.00000005,0.00000419,0.00000167,0.00000202,-0.00000575,-
 0.00000133,0.00000079,-0.00000011,-0.00000090,0.00000012,-0.00000142,-
 0.00000002,-0.00000091,-0.00000017,-0.00000055,0.00000011,0.00000511,-
 0.00000003,-0.00000013,-0.00000237,0.00000242,0.00000010,0.00000101,0.
 00000008,-0.00000033,0.00000137,-0.00000027,-0.00000055,0.00000376,-0.
 00000026,0.00000324,-0.00000514,-0.00000116,-0.00000048,0.00000053,-0.
 00000066,-0.00000133,0.00000402,-0.00000144,0.00000089,-0.00000051,0.0
 0000128,0.00000049,0.00000132,0.00000197,0.00000179,0.00000111,-0.0000
 0026,-0.00000014,0.00000229,0.00000076,0.00000031,0.00000194,-0.000000
 15,0.00000034,-0.00000163,-0.00000003,-0.00000057,0.00000014,-0.000000
 42,-0.00000108,-0.00000105,-0.00000095,-0.00000045,-0.00000057,0.00000
 011,-0.00000075,-0.00000185,0.00000028\\\@


 NOT WHAT WE DID SHALL BE THE TEST
 WHEN ACT AND WILL ARE DONE,
 BUT WHAT OUR LORD INFERS WE WOULD-
 HAD WE DIVINER BEEN.
           EMILY DICKINSON  POEMS NO. CLXXV
 Job cpu time:       0 days  0 hours 36 minutes 19.2 seconds.
 File lengths (MBytes):  RWF=    254 Int=      0 D2E=      0 Chk=      6 Scr=      1
 Normal termination of Gaussian 09 at Fri Feb 12 12:30:37 2021.
