 Entering Gaussian System, Link 0=g09
 Initial command:
 /opt/software/gaussian/g09.e01/l1.exe "/localscratch/enas93.64619895.0/Gau-24769.inp" -scrdir="/localscratch/enas93.64619895.0/"
 Entering Link 1 = /opt/software/gaussian/g09.e01/l1.exe PID=     24770.
  
 Copyright (c) 1988,1990,1992,1993,1995,1998,2003,2009,2015,
            Gaussian, Inc.  All Rights Reserved.
  
 This is part of the Gaussian(R) 09 program.  It is based on
 the Gaussian(R) 03 system (copyright 2003, Gaussian, Inc.),
 the Gaussian(R) 98 system (copyright 1998, Gaussian, Inc.),
 the Gaussian(R) 94 system (copyright 1995, Gaussian, Inc.),
 the Gaussian 92(TM) system (copyright 1992, Gaussian, Inc.),
 the Gaussian 90(TM) system (copyright 1990, Gaussian, Inc.),
 the Gaussian 88(TM) system (copyright 1988, Gaussian, Inc.),
 the Gaussian 86(TM) system (copyright 1986, Carnegie Mellon
 University), and the Gaussian 82(TM) system (copyright 1983,
 Carnegie Mellon University). Gaussian is a federally registered
 trademark of Gaussian, Inc.
  
 This software contains proprietary and confidential information,
 including trade secrets, belonging to Gaussian, Inc.
  
 This software is provided under written license and may be
 used, copied, transmitted, or stored only in accord with that
 written license.
  
 The following legend is applicable only to US Government
 contracts under FAR:
  
                    RESTRICTED RIGHTS LEGEND
  
 Use, reproduction and disclosure by the US Government is
 subject to restrictions as set forth in subparagraphs (a)
 and (c) of the Commercial Computer Software - Restricted
 Rights clause in FAR 52.227-19.
  
 Gaussian, Inc.
 340 Quinnipiac St., Bldg. 40, Wallingford CT 06492
  
  
 ---------------------------------------------------------------
 Warning -- This program may not be used in any manner that
 competes with the business of Gaussian, Inc. or will provide
 assistance to any competitor of Gaussian, Inc.  The licensee
 of this program is prohibited from giving any competitor of
 Gaussian, Inc. access to this program.  By using this program,
 the user acknowledges that Gaussian, Inc. is engaged in the
 business of creating and licensing software in the field of
 computational chemistry and represents and warrants to the
 licensee that it is not a competitor of Gaussian, Inc. and that
 it will not use this program in any manner prohibited above.
 ---------------------------------------------------------------
  

 Cite this work as:
 Gaussian 09, Revision E.01,
 M. J. Frisch, G. W. Trucks, H. B. Schlegel, G. E. Scuseria, 
 M. A. Robb, J. R. Cheeseman, G. Scalmani, V. Barone, B. Mennucci, 
 G. A. Petersson, H. Nakatsuji, M. Caricato, X. Li, H. P. Hratchian, 
 A. F. Izmaylov, J. Bloino, G. Zheng, J. L. Sonnenberg, M. Hada, 
 M. Ehara, K. Toyota, R. Fukuda, J. Hasegawa, M. Ishida, T. Nakajima, 
 Y. Honda, O. Kitao, H. Nakai, T. Vreven, J. A. Montgomery, Jr., 
 J. E. Peralta, F. Ogliaro, M. Bearpark, J. J. Heyd, E. Brothers, 
 K. N. Kudin, V. N. Staroverov, T. Keith, R. Kobayashi, J. Normand, 
 K. Raghavachari, A. Rendell, J. C. Burant, S. S. Iyengar, J. Tomasi, 
 M. Cossi, N. Rega, J. M. Millam, M. Klene, J. E. Knox, J. B. Cross, 
 V. Bakken, C. Adamo, J. Jaramillo, R. Gomperts, R. E. Stratmann, 
 O. Yazyev, A. J. Austin, R. Cammi, C. Pomelli, J. W. Ochterski, 
 R. L. Martin, K. Morokuma, V. G. Zakrzewski, G. A. Voth, 
 P. Salvador, J. J. Dannenberg, S. Dapprich, A. D. Daniels, 
 O. Farkas, J. B. Foresman, J. V. Ortiz, J. Cioslowski, 
 and D. J. Fox, Gaussian, Inc., Wallingford CT, 2013.
 
 ******************************************
 Gaussian 09:  EM64L-G09RevE.01 30-Nov-2015
                25-Mar-2021 
 ******************************************
 %nprocshared=16
 Will use up to   16 processors via shared memory.
 %mem=10GB
 ----------------------------------------------------------------------
 # opt=(calcall,tight,ts,modredundant,noeigentest) freq apfd/6-31g(d) n
 osymm
 ----------------------------------------------------------------------
 1/5=1,7=10,10=4,11=1,14=-1,18=120,26=3,38=1/1,3;
 2/9=110,12=2,15=1,17=6,18=5,40=1/2;
 3/5=1,6=6,7=1,11=2,16=1,25=1,30=1,71=2,74=-44,140=1/1,2,3;
 4//1;
 5/5=2,38=5/2;
 8/6=4,10=90,11=11/1;
 11/6=1,8=1,9=11,15=111,16=1,31=1/1,2,10;
 10/6=1,31=1/2;
 6/7=2,8=2,9=2,10=2,18=1,28=1/1;
 7/10=1,25=1,30=1/1,2,3,16;
 1/5=1,7=10,10=4,11=1,14=-1,18=20,26=3/3(3);
 2/9=110,15=1/2;
 7/8=1,9=1,25=1,30=1,44=-1/16;
 99//99;
 2/9=110,15=1/2;
 3/5=1,6=6,7=1,11=2,16=1,25=1,30=1,71=2,74=-44,140=1/1,2,3;
 4/5=5,16=3,69=1/1;
 5/5=2,38=5/2;
 8/6=4,10=90,11=11/1;
 11/6=1,8=1,9=11,15=111,16=1,31=1/1,2,10;
 10/6=1,31=1/2;
 7/10=1,25=1,30=1/1,2,3,16;
 1/5=1,7=10,10=4,11=1,14=-1,18=20,26=3/3(-8);
 2/9=110,15=1/2;
 6/7=2,8=2,9=2,10=2,18=1,19=2,28=1/1;
 7/8=1,9=1,25=1,30=1,44=-1/16;
 99//99;
 -------------------
 Title Card Required
 -------------------
 Symbolic Z-matrix:
 Charge =  0 Multiplicity = 1
 C                    -0.83623   2.84393   1.22037 
 C                    -2.60435   1.24627   2.71229 
 C                    -2.64624   2.59389   2.82375 
 N                    -1.78711   3.36873   2.11569 
 H                    -3.27399   0.61096   3.27943 
 H                    -3.34484   3.1137    3.4716 
 O                    -0.10863   3.60959   0.6012 
 N                    -0.80507   1.48186   1.11169 
 C                    -1.61888   0.68382   1.82105 
 N                    -1.50045  -0.62695   1.69844 
 H                    -0.74707  -1.11548   1.13489 
 H                    -2.13946  -1.22644   2.19815 
 H                    -1.80362   4.37726   2.1803 
 P                    -0.20049  -2.54372  -0.91422 
 O                    -0.35567  -1.65823  -2.10942 
 O                     0.35165  -2.02253   0.40356 
 O                    -1.6507   -3.21266  -0.5237 
 O                     0.72676  -3.82089  -1.3487 
 H                    -2.16722  -3.27727  -1.34009 
 H                     1.01572  -4.26749  -0.54007 
 S                     2.10707   0.70581  -1.99191 
 C                     2.69623  -0.99784  -1.87012 
 H                     3.73609  -1.05788  -2.20471 
 H                     2.58735  -1.36332  -0.84518 
 H                     2.04454  -1.59035  -2.51358 
 C                     3.25481   1.54291  -0.87135 
 H                     2.9088    2.5728   -0.7501 
 H                     3.26397   1.05399   0.10857 
 H                     4.26472   1.54795  -1.29064 
 C                     0.35383   0.84963  -0.47715 
 H                     0.49476   1.91549  -0.56752 
 H                    -0.39627   0.32564  -1.06122 
 H                     0.9357    0.2623    0.21739 
 
 Add virtual bond connecting atoms O16        and H11        Dist= 3.03D+00.
 Add virtual bond connecting atoms C30        and N8         Dist= 3.90D+00.
 Add virtual bond connecting atoms H31        and O7         Dist= 4.05D+00.
 Add virtual bond connecting atoms H31        and N8         Dist= 4.10D+00.
 Add virtual bond connecting atoms O15        and H25        Dist= 4.60D+00.
 Add virtual bond connecting atoms C30        and S21        Dist= 4.39D+00.
 Add virtual bond connecting atoms H31        and S21        Dist= 4.66D+00.
 Add virtual bond connecting atoms H33        and H28        Dist= 4.65D+00.
 The following ModRedundant input section has been read:
 A       8      30      21 F                                                   
 X      30 F                                                                   
 X      11 F                                                                   
 

 GradGradGradGradGradGradGradGradGradGradGradGradGradGradGradGradGradGrad
 Berny optimization.
 Initialization pass.
                           ----------------------------
                           !    Initial Parameters    !
                           ! (Angstroms and Degrees)  !
 --------------------------                            --------------------------
 ! Name  Definition              Value          Derivative Info.                !
 --------------------------------------------------------------------------------
 ! X11   R(11,-1)               -0.7471         frozen, calculate D2E/DX2 analyt!
 ! Y11   R(11,-2)               -1.1155         frozen, calculate D2E/DX2 analyt!
 ! Z11   R(11,-3)                1.1349         frozen, calculate D2E/DX2 analyt!
 ! X30   R(30,-1)                0.3538         frozen, calculate D2E/DX2 analyt!
 ! Y30   R(30,-2)                0.8496         frozen, calculate D2E/DX2 analyt!
 ! Z30   R(30,-3)               -0.4772         frozen, calculate D2E/DX2 analyt!
 ! R1    R(1,4)                  1.4076         calculate D2E/DX2 analytically  !
 ! R2    R(1,7)                  1.2243         calculate D2E/DX2 analytically  !
 ! R3    R(1,8)                  1.3668         calculate D2E/DX2 analytically  !
 ! R4    R(2,3)                  1.3529         calculate D2E/DX2 analytically  !
 ! R5    R(2,5)                  1.0834         calculate D2E/DX2 analytically  !
 ! R6    R(2,9)                  1.4428         calculate D2E/DX2 analytically  !
 ! R7    R(3,4)                  1.3564         calculate D2E/DX2 analytically  !
 ! R8    R(3,6)                  1.0853         calculate D2E/DX2 analytically  !
 ! R9    R(4,13)                 1.0107         calculate D2E/DX2 analytically  !
 ! R10   R(7,31)                 2.1448         calculate D2E/DX2 analytically  !
 ! R11   R(8,9)                  1.3425         calculate D2E/DX2 analytically  !
 ! R12   R(8,30)                 2.0657         calculate D2E/DX2 analytically  !
 ! R13   R(8,31)                 2.1673         calculate D2E/DX2 analytically  !
 ! R14   R(9,10)                 1.3218         calculate D2E/DX2 analytically  !
 ! R15   R(10,11)                1.0601         calculate D2E/DX2 analytically  !
 ! R16   R(10,12)                1.0087         calculate D2E/DX2 analytically  !
 ! R17   R(11,16)                1.6015         calculate D2E/DX2 analytically  !
 ! R18   R(14,15)                1.4956         calculate D2E/DX2 analytically  !
 ! R19   R(14,16)                1.5209         calculate D2E/DX2 analytically  !
 ! R20   R(14,17)                1.6441         calculate D2E/DX2 analytically  !
 ! R21   R(14,18)                1.637          calculate D2E/DX2 analytically  !
 ! R22   R(15,25)                2.4349         calculate D2E/DX2 analytically  !
 ! R23   R(17,19)                0.9682         calculate D2E/DX2 analytically  !
 ! R24   R(18,20)                0.9679         calculate D2E/DX2 analytically  !
 ! R25   R(21,22)                1.8068         calculate D2E/DX2 analytically  !
 ! R26   R(21,26)                1.8093         calculate D2E/DX2 analytically  !
 ! R27   R(21,30)                2.3214         calculate D2E/DX2 analytically  !
 ! R28   R(21,31)                2.4681         calculate D2E/DX2 analytically  !
 ! R29   R(22,23)                1.094          calculate D2E/DX2 analytically  !
 ! R30   R(22,24)                1.0936         calculate D2E/DX2 analytically  !
 ! R31   R(22,25)                1.0908         calculate D2E/DX2 analytically  !
 ! R32   R(26,27)                1.0932         calculate D2E/DX2 analytically  !
 ! R33   R(26,28)                1.0952         calculate D2E/DX2 analytically  !
 ! R34   R(26,29)                1.0935         calculate D2E/DX2 analytically  !
 ! R35   R(28,33)                2.4616         calculate D2E/DX2 analytically  !
 ! R36   R(30,31)                1.0789         calculate D2E/DX2 analytically  !
 ! R37   R(30,32)                1.0855         calculate D2E/DX2 analytically  !
 ! R38   R(30,33)                1.0798         calculate D2E/DX2 analytically  !
 ! A1    A(4,1,7)              119.3394         calculate D2E/DX2 analytically  !
 ! A2    A(4,1,8)              115.9474         calculate D2E/DX2 analytically  !
 ! A3    A(7,1,8)              124.7131         calculate D2E/DX2 analytically  !
 ! A4    A(3,2,5)              121.4584         calculate D2E/DX2 analytically  !
 ! A5    A(3,2,9)              117.4094         calculate D2E/DX2 analytically  !
 ! A6    A(5,2,9)              121.1267         calculate D2E/DX2 analytically  !
 ! A7    A(2,3,4)              120.425          calculate D2E/DX2 analytically  !
 ! A8    A(2,3,6)              123.1061         calculate D2E/DX2 analytically  !
 ! A9    A(4,3,6)              116.4678         calculate D2E/DX2 analytically  !
 ! A10   A(1,4,3)              123.1578         calculate D2E/DX2 analytically  !
 ! A11   A(1,4,13)             115.0702         calculate D2E/DX2 analytically  !
 ! A12   A(3,4,13)             121.7551         calculate D2E/DX2 analytically  !
 ! A13   A(1,7,31)              87.0648         calculate D2E/DX2 analytically  !
 ! A14   A(1,8,9)              122.4502         calculate D2E/DX2 analytically  !
 ! A15   A(1,8,30)             112.269          calculate D2E/DX2 analytically  !
 ! A16   A(1,8,31)              82.8704         calculate D2E/DX2 analytically  !
 ! A17   A(9,8,30)             124.3713         calculate D2E/DX2 analytically  !
 ! A18   A(9,8,31)             153.1086         calculate D2E/DX2 analytically  !
 ! A19   A(2,9,8)              120.5762         calculate D2E/DX2 analytically  !
 ! A20   A(2,9,10)             120.3348         calculate D2E/DX2 analytically  !
 ! A21   A(8,9,10)             119.0878         calculate D2E/DX2 analytically  !
 ! A22   A(9,10,11)            124.7476         calculate D2E/DX2 analytically  !
 ! A23   A(9,10,12)            119.1209         calculate D2E/DX2 analytically  !
 ! A24   A(11,10,12)           116.084          calculate D2E/DX2 analytically  !
 ! A25   A(15,14,16)           121.8179         calculate D2E/DX2 analytically  !
 ! A26   A(15,14,17)           109.8281         calculate D2E/DX2 analytically  !
 ! A27   A(15,14,18)           107.9751         calculate D2E/DX2 analytically  !
 ! A28   A(16,14,17)           104.7053         calculate D2E/DX2 analytically  !
 ! A29   A(16,14,18)           106.9596         calculate D2E/DX2 analytically  !
 ! A30   A(17,14,18)           104.1961         calculate D2E/DX2 analytically  !
 ! A31   A(14,15,25)            92.6867         calculate D2E/DX2 analytically  !
 ! A32   A(11,16,14)           109.9196         calculate D2E/DX2 analytically  !
 ! A33   A(14,17,19)           107.3031         calculate D2E/DX2 analytically  !
 ! A34   A(14,18,20)           107.9001         calculate D2E/DX2 analytically  !
 ! A35   A(22,21,26)           100.8156         calculate D2E/DX2 analytically  !
 ! A36   A(22,21,30)           105.112          calculate D2E/DX2 analytically  !
 ! A37   A(22,21,31)           129.5134         calculate D2E/DX2 analytically  !
 ! A38   A(26,21,30)            92.6543         calculate D2E/DX2 analytically  !
 ! A39   A(26,21,31)            80.2247         calculate D2E/DX2 analytically  !
 ! A40   A(21,22,23)           109.9424         calculate D2E/DX2 analytically  !
 ! A41   A(21,22,24)           110.2332         calculate D2E/DX2 analytically  !
 ! A42   A(21,22,25)           106.1173         calculate D2E/DX2 analytically  !
 ! A43   A(23,22,24)           111.2806         calculate D2E/DX2 analytically  !
 ! A44   A(23,22,25)           110.9561         calculate D2E/DX2 analytically  !
 ! A45   A(24,22,25)           108.1714         calculate D2E/DX2 analytically  !
 ! A46   A(15,25,22)           120.4082         calculate D2E/DX2 analytically  !
 ! A47   A(21,26,27)           107.6841         calculate D2E/DX2 analytically  !
 ! A48   A(21,26,28)           110.6653         calculate D2E/DX2 analytically  !
 ! A49   A(21,26,29)           110.5188         calculate D2E/DX2 analytically  !
 ! A50   A(27,26,28)           108.9045         calculate D2E/DX2 analytically  !
 ! A51   A(27,26,29)           109.2994         calculate D2E/DX2 analytically  !
 ! A52   A(28,26,29)           109.72           calculate D2E/DX2 analytically  !
 ! A53   A(26,28,33)           100.0922         calculate D2E/DX2 analytically  !
 ! A54   A(8,30,21)            160.8288         frozen, calculate D2E/DX2 analyt!
 ! A55   A(8,30,32)            100.0156         calculate D2E/DX2 analytically  !
 ! A56   A(8,30,33)             88.5134         calculate D2E/DX2 analytically  !
 ! A57   A(21,30,32)            98.0992         calculate D2E/DX2 analytically  !
 ! A58   A(21,30,33)            88.7984         calculate D2E/DX2 analytically  !
 ! A59   A(31,30,32)           121.4706         calculate D2E/DX2 analytically  !
 ! A60   A(31,30,33)           121.3878         calculate D2E/DX2 analytically  !
 ! A61   A(32,30,33)           117.1228         calculate D2E/DX2 analytically  !
 ! A62   A(7,31,8)              64.3496         calculate D2E/DX2 analytically  !
 ! A63   A(7,31,21)            152.2995         calculate D2E/DX2 analytically  !
 ! A64   A(7,31,30)            134.2611         calculate D2E/DX2 analytically  !
 ! A65   A(8,31,21)            137.8038         calculate D2E/DX2 analytically  !
 ! A66   A(28,33,30)           107.8376         calculate D2E/DX2 analytically  !
 ! A67   L(10,11,16,27,-1)     186.7244         calculate D2E/DX2 analytically  !
 ! A68   L(10,11,16,27,-2)     176.4005         calculate D2E/DX2 analytically  !
 ! D1    D(7,1,4,3)            178.8688         calculate D2E/DX2 analytically  !
 ! D2    D(7,1,4,13)             0.3409         calculate D2E/DX2 analytically  !
 ! D3    D(8,1,4,3)             -1.0142         calculate D2E/DX2 analytically  !
 ! D4    D(8,1,4,13)          -179.5421         calculate D2E/DX2 analytically  !
 ! D5    D(4,1,7,31)          -169.5926         calculate D2E/DX2 analytically  !
 ! D6    D(8,1,7,31)            10.2794         calculate D2E/DX2 analytically  !
 ! D7    D(4,1,8,9)             -0.6242         calculate D2E/DX2 analytically  !
 ! D8    D(4,1,8,30)           168.8943         calculate D2E/DX2 analytically  !
 ! D9    D(4,1,8,31)           169.6383         calculate D2E/DX2 analytically  !
 ! D10   D(7,1,8,9)            179.4999         calculate D2E/DX2 analytically  !
 ! D11   D(7,1,8,30)           -10.9817         calculate D2E/DX2 analytically  !
 ! D12   D(7,1,8,31)           -10.2377         calculate D2E/DX2 analytically  !
 ! D13   D(5,2,3,4)            179.2072         calculate D2E/DX2 analytically  !
 ! D14   D(5,2,3,6)             -0.4017         calculate D2E/DX2 analytically  !
 ! D15   D(9,2,3,4)              0.0517         calculate D2E/DX2 analytically  !
 ! D16   D(9,2,3,6)           -179.5573         calculate D2E/DX2 analytically  !
 ! D17   D(3,2,9,8)             -1.6256         calculate D2E/DX2 analytically  !
 ! D18   D(3,2,9,10)           177.9738         calculate D2E/DX2 analytically  !
 ! D19   D(5,2,9,8)            179.2159         calculate D2E/DX2 analytically  !
 ! D20   D(5,2,9,10)            -1.1847         calculate D2E/DX2 analytically  !
 ! D21   D(2,3,4,1)              1.276          calculate D2E/DX2 analytically  !
 ! D22   D(2,3,4,13)           179.7078         calculate D2E/DX2 analytically  !
 ! D23   D(6,3,4,1)           -179.0899         calculate D2E/DX2 analytically  !
 ! D24   D(6,3,4,13)            -0.6581         calculate D2E/DX2 analytically  !
 ! D25   D(1,7,31,8)            -5.8898         calculate D2E/DX2 analytically  !
 ! D26   D(1,7,31,21)         -154.4666         calculate D2E/DX2 analytically  !
 ! D27   D(1,7,31,30)          -11.0203         calculate D2E/DX2 analytically  !
 ! D28   D(1,8,9,2)              1.9337         calculate D2E/DX2 analytically  !
 ! D29   D(1,8,9,10)          -177.6707         calculate D2E/DX2 analytically  !
 ! D30   D(30,8,9,2)          -166.2975         calculate D2E/DX2 analytically  !
 ! D31   D(30,8,9,10)           14.0982         calculate D2E/DX2 analytically  !
 ! D32   D(31,8,9,2)          -156.2857         calculate D2E/DX2 analytically  !
 ! D33   D(31,8,9,10)           24.1099         calculate D2E/DX2 analytically  !
 ! D34   D(1,8,30,21)           41.6435         calculate D2E/DX2 analytically  !
 ! D35   D(1,8,30,32)         -119.0267         calculate D2E/DX2 analytically  !
 ! D36   D(1,8,30,33)          123.6812         calculate D2E/DX2 analytically  !
 ! D37   D(9,8,30,21)         -149.0753         calculate D2E/DX2 analytically  !
 ! D38   D(9,8,30,32)           50.2546         calculate D2E/DX2 analytically  !
 ! D39   D(9,8,30,33)          -67.0376         calculate D2E/DX2 analytically  !
 ! D40   D(1,8,31,7)             5.3085         calculate D2E/DX2 analytically  !
 ! D41   D(1,8,31,21)          164.158          calculate D2E/DX2 analytically  !
 ! D42   D(9,8,31,7)           166.9141         calculate D2E/DX2 analytically  !
 ! D43   D(9,8,31,21)          -34.2364         calculate D2E/DX2 analytically  !
 ! D44   D(2,9,10,11)         -174.1879         calculate D2E/DX2 analytically  !
 ! D45   D(2,9,10,12)            3.2031         calculate D2E/DX2 analytically  !
 ! D46   D(8,9,10,11)            5.4174         calculate D2E/DX2 analytically  !
 ! D47   D(8,9,10,12)         -177.1916         calculate D2E/DX2 analytically  !
 ! D48   D(9,10,16,14)        -103.3343         calculate D2E/DX2 analytically  !
 ! D49   D(12,10,16,14)         81.141          calculate D2E/DX2 analytically  !
 ! D50   D(16,14,15,25)         72.9896         calculate D2E/DX2 analytically  !
 ! D51   D(17,14,15,25)       -164.2389         calculate D2E/DX2 analytically  !
 ! D52   D(18,14,15,25)        -51.2185         calculate D2E/DX2 analytically  !
 ! D53   D(15,14,16,11)         73.9249         calculate D2E/DX2 analytically  !
 ! D54   D(17,14,16,11)        -51.2126         calculate D2E/DX2 analytically  !
 ! D55   D(18,14,16,11)       -161.4011         calculate D2E/DX2 analytically  !
 ! D56   D(15,14,17,19)         28.3288         calculate D2E/DX2 analytically  !
 ! D57   D(16,14,17,19)        160.7098         calculate D2E/DX2 analytically  !
 ! D58   D(18,14,17,19)        -87.1134         calculate D2E/DX2 analytically  !
 ! D59   D(15,14,18,20)        165.6699         calculate D2E/DX2 analytically  !
 ! D60   D(16,14,18,20)         32.9499         calculate D2E/DX2 analytically  !
 ! D61   D(17,14,18,20)        -77.5921         calculate D2E/DX2 analytically  !
 ! D62   D(14,15,25,22)        -74.1325         calculate D2E/DX2 analytically  !
 ! D63   D(26,21,22,23)        -60.6799         calculate D2E/DX2 analytically  !
 ! D64   D(26,21,22,24)         62.3594         calculate D2E/DX2 analytically  !
 ! D65   D(26,21,22,25)        179.262          calculate D2E/DX2 analytically  !
 ! D66   D(30,21,22,23)       -156.4436         calculate D2E/DX2 analytically  !
 ! D67   D(30,21,22,24)        -33.4044         calculate D2E/DX2 analytically  !
 ! D68   D(30,21,22,25)         83.4983         calculate D2E/DX2 analytically  !
 ! D69   D(31,21,22,23)       -146.867          calculate D2E/DX2 analytically  !
 ! D70   D(31,21,22,24)        -23.8278         calculate D2E/DX2 analytically  !
 ! D71   D(31,21,22,25)         93.0749         calculate D2E/DX2 analytically  !
 ! D72   D(22,21,26,27)       -172.1504         calculate D2E/DX2 analytically  !
 ! D73   D(22,21,26,28)        -53.223          calculate D2E/DX2 analytically  !
 ! D74   D(22,21,26,29)         68.5273         calculate D2E/DX2 analytically  !
 ! D75   D(30,21,26,27)        -66.2145         calculate D2E/DX2 analytically  !
 ! D76   D(30,21,26,28)         52.713          calculate D2E/DX2 analytically  !
 ! D77   D(30,21,26,29)        174.4632         calculate D2E/DX2 analytically  !
 ! D78   D(31,21,26,27)        -43.5126         calculate D2E/DX2 analytically  !
 ! D79   D(31,21,26,28)         75.4148         calculate D2E/DX2 analytically  !
 ! D80   D(31,21,26,29)       -162.835          calculate D2E/DX2 analytically  !
 ! D81   D(22,21,30,8)         123.1654         calculate D2E/DX2 analytically  !
 ! D82   D(22,21,30,32)        -76.0576         calculate D2E/DX2 analytically  !
 ! D83   D(22,21,30,33)         41.1754         calculate D2E/DX2 analytically  !
 ! D84   D(26,21,30,8)          21.213          calculate D2E/DX2 analytically  !
 ! D85   D(26,21,30,32)       -178.01           calculate D2E/DX2 analytically  !
 ! D86   D(26,21,30,33)        -60.777          calculate D2E/DX2 analytically  !
 ! D87   D(22,21,31,7)         131.2546         calculate D2E/DX2 analytically  !
 ! D88   D(22,21,31,8)          -4.3414         calculate D2E/DX2 analytically  !
 ! D89   D(26,21,31,7)          35.2431         calculate D2E/DX2 analytically  !
 ! D90   D(26,21,31,8)        -100.353          calculate D2E/DX2 analytically  !
 ! D91   D(21,22,25,15)        -59.1823         calculate D2E/DX2 analytically  !
 ! D92   D(23,22,25,15)       -178.5784         calculate D2E/DX2 analytically  !
 ! D93   D(24,22,25,15)         59.0946         calculate D2E/DX2 analytically  !
 ! D94   D(21,26,28,33)        -31.7599         calculate D2E/DX2 analytically  !
 ! D95   D(27,26,28,33)         86.4262         calculate D2E/DX2 analytically  !
 ! D96   D(29,26,28,33)       -153.9787         calculate D2E/DX2 analytically  !
 ! D97   D(26,28,33,30)        -20.7235         calculate D2E/DX2 analytically  !
 ! D98   D(32,30,31,7)         100.9206         calculate D2E/DX2 analytically  !
 ! D99   D(33,30,31,7)         -77.458          calculate D2E/DX2 analytically  !
 ! D100  D(8,30,33,28)        -119.885          calculate D2E/DX2 analytically  !
 ! D101  D(21,30,33,28)         41.1314         calculate D2E/DX2 analytically  !
 ! D102  D(31,30,33,28)        -41.9354         calculate D2E/DX2 analytically  !
 ! D103  D(32,30,33,28)        139.6184         calculate D2E/DX2 analytically  !
 --------------------------------------------------------------------------------
 Trust Radius=3.00D-01 FncErr=1.00D-07 GrdErr=1.00D-06
 Number of steps in this run=    198 maximum allowed number of steps=    198.
 Search for a saddle point of order  1.
 GradGradGradGradGradGradGradGradGradGradGradGradGradGradGradGradGradGrad

                          Input orientation:                          
 ---------------------------------------------------------------------
 Center     Atomic      Atomic             Coordinates (Angstroms)
 Number     Number       Type             X           Y           Z
 ---------------------------------------------------------------------
      1          6           0       -0.836226    2.843929    1.220366
      2          6           0       -2.604351    1.246270    2.712288
      3          6           0       -2.646244    2.593887    2.823748
      4          7           0       -1.787110    3.368731    2.115691
      5          1           0       -3.273989    0.610956    3.279428
      6          1           0       -3.344843    3.113699    3.471603
      7          8           0       -0.108625    3.609594    0.601196
      8          7           0       -0.805074    1.481856    1.111688
      9          6           0       -1.618876    0.683822    1.821052
     10          7           0       -1.500454   -0.626950    1.698438
     11          1           0       -0.747072   -1.115481    1.134886
     12          1           0       -2.139463   -1.226438    2.198153
     13          1           0       -1.803617    4.377260    2.180301
     14         15           0       -0.200488   -2.543723   -0.914220
     15          8           0       -0.355671   -1.658234   -2.109419
     16          8           0        0.351650   -2.022533    0.403557
     17          8           0       -1.650702   -3.212662   -0.523697
     18          8           0        0.726762   -3.820887   -1.348698
     19          1           0       -2.167224   -3.277267   -1.340088
     20          1           0        1.015716   -4.267489   -0.540074
     21         16           0        2.107069    0.705814   -1.991909
     22          6           0        2.696233   -0.997839   -1.870115
     23          1           0        3.736092   -1.057875   -2.204706
     24          1           0        2.587352   -1.363316   -0.845178
     25          1           0        2.044539   -1.590347   -2.513583
     26          6           0        3.254813    1.542909   -0.871351
     27          1           0        2.908801    2.572797   -0.750104
     28          1           0        3.263969    1.053987    0.108565
     29          1           0        4.264717    1.547945   -1.290637
     30          6           0        0.353825    0.849629   -0.477152
     31          1           0        0.494758    1.915489   -0.567518
     32          1           0       -0.396273    0.325638   -1.061219
     33          1           0        0.935696    0.262303    0.217392
 ---------------------------------------------------------------------
                    Distance matrix (angstroms):
                    1          2          3          4          5
     1  C    0.000000
     2  C    2.811514   0.000000
     3  C    2.430950   1.352867   0.000000
     4  N    1.407553   2.351308   1.356407   0.000000
     5  H    3.894688   1.083368   2.129254   3.342217   0.000000
     6  H    3.381420   2.147598   1.085339   2.080882   2.511110
     7  O    1.224344   4.033690   3.522912   2.273548   5.117058
     8  N    1.366757   2.419673   2.749122   2.352172   3.398986
     9  C    2.374748   1.442848   2.389400   2.706261   2.207163
    10  N    3.566056   2.399048   3.599020   4.027622   2.679061
    11  H    3.961336   3.393457   4.496501   4.706571   3.736971
    12  H    4.384334   2.568023   3.904239   4.609396   2.415020
    13  H    2.051444   3.275253   2.074720   1.010731   4.189883
    14  P    5.829873   5.770110   6.808022   6.830435   6.081537
    15  O    5.620309   6.061482   6.903868   6.720934   6.534943
    16  O    5.075498   4.975264   6.012988   6.047431   5.324580
    17  O    6.355110   5.591343   6.775877   7.092229   5.631951
    18  O    7.311826   7.298219   8.362763   8.367326   7.554256
    19  H    6.767313   6.088942   7.213698   7.500412   6.138659
    20  H    7.556527   7.354202   8.473708   8.556914   7.535874
    21  S    4.853167   6.679749   7.024910   6.255249   7.533378
    22  C    6.065354   7.357352   7.967114   7.419835   8.046711
    23  H    6.918185   8.347882   8.908138   8.292553   9.055493
    24  H    5.804160   6.813170   7.517380   7.091892   7.434073
    25  H    6.473329   7.547735   8.246112   7.791288   8.166483
    26  C    4.775409   6.874610   7.041362   6.138162   7.792481
    27  H    4.240459   6.643996   6.605406   5.558585   7.636284
    28  H    4.609945   6.422891   6.683871   5.907622   7.279804
    29  H    5.831323   7.956036   8.110705   7.179341   8.865412
    30  C    2.876634   4.368141   4.789446   4.201466   5.227800
    31  H    2.414549   4.561738   4.671916   3.810308   5.541142
    32  H    3.426511   4.467944   5.029940   4.613849   5.215733
    33  H    3.287926   4.441242   5.005963   4.546109   5.217190
                    6          7          8          9         10
     6  H    0.000000
     7  O    4.354108   0.000000
     8  N    3.831780   2.296282   0.000000
     9  C    3.406990   3.511274   1.342509   0.000000
    10  N    4.531925   4.592323   2.296713   1.321810   0.000000
    11  H    5.485857   4.797788   2.598088   2.113849   1.060112
    12  H    4.680962   5.482862   3.208716   2.015517   1.008679
    13  H    2.374747   2.440467   3.243823   3.715464   5.036489
    14  P    7.818493   6.337841   4.546990   4.462128   3.491405
    15  O    7.928070   5.929458   4.520803   4.746527   4.107779
    16  O    7.032627   5.654358   3.757686   3.635467   2.656061
    17  O    7.671726   7.084248   5.042625   4.547686   3.412677
    18  O    9.375593   7.727354   6.043104   5.986797   4.944367
    19  H    8.086013   7.445486   5.524121   5.097423   4.086735
    20  H    9.465197   8.038350   6.252884   6.085349   4.959392
    21  S    8.085247   4.479445   4.326099   5.331212   5.330023
    22  C    9.051701   5.933215   5.224862   5.922235   5.521260
    23  H    9.988101   6.666348   6.170161   6.922132   6.545353
    24  H    8.594719   5.838675   4.840752   5.384414   4.870562
    25  H    9.327161   6.432523   5.540877   6.114042   5.588938
    26  C    8.055066   4.213347   4.518723   5.633818   5.824489
    27  H    7.564618   3.464941   4.295264   5.538856   5.972878
    28  H    7.696027   4.260071   4.212652   5.187659   5.296506
    29  H    9.112405   5.191873   5.610554   6.711630   6.848499
    30  C    5.865051   2.999017   2.065713   3.033279   3.217426
    31  H    5.700240   2.144751   2.167333   3.419023   3.947078
    32  H    6.083899   3.691982   2.495092   3.151276   3.121273
    33  H    6.086326   3.527360   2.305939   3.045528   2.986485
                   11         12         13         14         15
    11  H    0.000000
    12  H    1.755449   0.000000
    13  H    5.690289   5.613781   0.000000
    14  P    2.556847   3.896374   7.748941   0.000000
    15  O    3.312596   4.682258   7.544895   1.495551   0.000000
    16  O    1.601492   3.171748   6.982789   1.520865   2.635918
    17  O    2.822342   3.404767   8.058654   1.644113   2.570577
    18  O    3.957221   5.246576   9.277191   1.636982   2.535237
    19  H    3.579895   4.089721   8.433097   2.141845   2.548502
    20  H    3.980963   5.167304   9.491089   2.142547   3.339425
    21  S    4.608696   6.270825   6.795610   4.128647   3.415790
    22  C    4.571676   6.323529   8.096061   3.419720   3.131694
    23  H    5.590613   7.344095   8.913885   4.401109   4.136670
    24  H    3.885931   5.623467   7.835071   3.028230   3.216623
    25  H    4.618432   6.311795   8.511944   2.916682   2.434947
    26  C    5.206449   6.796275   6.552392   5.351776   4.981538
    27  H    5.524671   6.972186   5.835259   5.989440   5.514176
    28  H    4.674225   6.226058   6.404425   5.098242   5.037598
    29  H    6.172117   7.802716   7.541692   6.068072   5.683131
    30  C    2.769891   4.205211   4.915363   3.465996   3.075233
    31  H    3.691490   4.945681   4.346649   4.526383   3.983991
    32  H    2.650049   4.008885   5.376217   2.879787   2.244130
    33  H    2.360464   3.949224   5.318808   3.231910   3.281789
                   16         17         18         19         20
    16  O    0.000000
    17  O    2.507114   0.000000
    18  O    2.538737   2.588996   0.000000
    19  H    3.310496   0.968227   2.944614   0.000000
    20  H    2.524134   2.867527   0.967895   3.428071   0.000000
    21  S    4.032819   5.624139   4.775981   5.878723   5.294584
    22  C    3.422959   5.061040   3.481421   5.397215   3.909445
    23  H    4.380416   6.040401   4.174093   6.365721   4.524717
    24  H    2.644290   4.635141   3.123297   5.149188   3.316225
    25  H    3.400348   4.499595   2.840564   4.686335   3.481423
    26  C    4.771386   6.841082   5.948883   7.269958   6.235706
    27  H    5.383959   7.369658   6.782242   7.767713   7.100521
    28  H    4.246598   6.538963   5.685546   7.096211   5.813216
    29  H    5.561538   7.631760   6.429996   8.040832   6.703628
    30  C    3.004158   4.530177   4.765752   4.912394   5.160131
    31  H    4.058508   5.559033   5.793969   5.886232   6.204947
    32  H    2.866856   3.792372   4.305522   4.024296   4.833438
    33  H    2.365638   4.394775   4.378211   4.958065   4.593384
                   21         22         23         24         25
    21  S    0.000000
    22  C    1.806760   0.000000
    23  H    2.410311   1.094012   0.000000
    24  H    2.413910   1.093583   1.805883   0.000000
    25  H    2.355506   1.090790   1.800079   1.769114   0.000000
    26  C    1.809335   2.786564   2.962017   2.982002   3.738848
    27  H    2.381277   3.748206   3.997756   3.950361   4.603105
    28  H    2.423145   2.906456   3.167662   2.685291   3.918568
    29  H    2.420002   3.045809   2.811630   3.389311   4.034063
    30  C    2.321430   3.292470   4.250029   3.165630   3.599868
    31  H    2.468147   3.876949   4.693349   3.899565   4.298823
    32  H    2.697673   3.459696   4.505343   3.435296   3.426065
    33  H    2.539651   3.007513   3.930858   2.549443   3.481389
                   26         27         28         29         30
    26  C    0.000000
    27  H    1.093204   0.000000
    28  H    1.095155   1.780517   0.000000
    29  H    1.093495   1.783537   1.789765   0.000000
    30  C    3.008615   3.093819   2.975528   4.055179   0.000000
    31  H    2.801613   2.508584   2.977886   3.856239   1.078928
    32  H    3.853340   4.008744   3.911043   4.824054   1.085517
    33  H    2.864196   3.188663   2.461597   3.874198   1.079776
                   31         32         33
    31  H    0.000000
    32  H    1.888201   0.000000
    33  H    1.882428   1.847430   0.000000
 Symmetry turned off by external request.
 Stoichiometry    C7H16N3O5PS
 Framework group  C1[X(C7H16N3O5PS)]
 Deg. of freedom    93
 Full point group                 C1      NOp   1
 Rotational constants (GHZ):      0.4623394      0.2518568      0.1745139
 Standard basis: 6-31G(d) (6D, 7F)
   295 basis functions,   588 primitive gaussians,   295 cartesian basis functions
    75 alpha electrons       75 beta electrons
       nuclear repulsion energy      1619.8764669388 Hartrees.
 NAtoms=   33 NActive=   33 NUniq=   33 SFac= 1.00D+00 NAtFMM=   60 NAOKFM=F Big=F
 Integral buffers will be    131072 words long.
 Raffenetti 2 integral format.
 Two-electron integral symmetry is turned off.
 R6APFD:  NTU= -4 IXU= 1 FactS= 1.050
 Nuclear repulsion after empirical dispersion term =     1619.8409227906 Hartrees.
 One-electron integrals computed using PRISM.
 NBasis=   295 RedAO= T EigKep=  1.13D-03  NBF=   295
 NBsUse=   295 1.00D-06 EigRej= -1.00D+00 NBFU=   295
 ExpMin= 9.98D-02 ExpMax= 2.19D+04 ExpMxC= 3.30D+03 IAcc=2 IRadAn=         4 AccDes= 0.00D+00
 Harris functional with IExCor= 3731 and IRadAn=       4 diagonalized for initial guess.
 HarFok:  IExCor= 3731 AccDes= 0.00D+00 IRadAn=         4 IDoV= 1 UseB2=F ITyADJ=14
 ICtDFT=  3500011 ScaDFX=  1.000000  1.000000  1.000000  1.000000
 FoFCou: FMM=F IPFlag=           0 FMFlag=      100000 FMFlg1=           0
         NFxFlg=           0 DoJE=T BraDBF=F KetDBF=T FulRan=T
         wScrn=  0.000000 ICntrl=     500 IOpCl=  0 I1Cent=   200000004 NGrid=           0
         NMat0=    1 NMatS0=      1 NMatT0=    0 NMatD0=    1 NMtDS0=    0 NMtDT0=    0
 Symmetry not used in FoFCou.
 Keep R1 ints in memory in canonical form, NReq=966372831.
 Requested convergence on RMS density matrix=1.00D-08 within 128 cycles.
 Requested convergence on MAX density matrix=1.00D-06.
 Requested convergence on             energy=1.00D-06.
 No special actions if energy rises.
 Integral accuracy reduced to 1.0D-05 until final iterations.
 Initial convergence to 1.0D-05 achieved.  Increase integral accuracy.
 SCF Done:  E(RAPFD) =  -1555.51242423     A.U. after   15 cycles
            NFock= 15  Conv=0.87D-08     -V/T= 2.0061
 DoSCS=F DFT=T ScalE2(SS,OS)=  1.000000  1.000000
 Range of M.O.s used for correlation:     1   295
 NBasis=   295 NAE=    75 NBE=    75 NFC=     0 NFV=     0
 NROrb=    295 NOA=    75 NOB=    75 NVA=   220 NVB=   220
 R6APFD:  NTU= -4 IXU= 1 FactS= 1.050
 Symmetrizing basis deriv contribution to polar:
 IMax=3 JMax=2 DiffMx= 0.00D+00
 G2DrvN: will do    34 centers at a time, making    1 passes.
 Calling FoFCou, ICntrl=  3107 FMM=F I1Cent=   0 AccDes= 0.00D+00.
 End of G2Drv F.D. properties file   721 does not exist.
 End of G2Drv F.D. properties file   722 does not exist.
 End of G2Drv F.D. properties file   788 does not exist.
          IDoAtm=111111111111111111111111111111111
          Differentiating once with respect to electric field.
                with respect to dipole field.
          Differentiating once with respect to nuclear coordinates.
 Keep R1 ints in memory in canonical form, NReq=966096826.
          There are   102 degrees of freedom in the 1st order CPHF.  IDoFFX=6 NUNeed=     3.
     99 vectors produced by pass  0 Test12= 1.65D-14 1.00D-09 XBig12= 1.76D+02 6.32D+00.
 AX will form    99 AO Fock derivatives at one time.
     99 vectors produced by pass  1 Test12= 1.65D-14 1.00D-09 XBig12= 2.26D+01 6.75D-01.
     99 vectors produced by pass  2 Test12= 1.65D-14 1.00D-09 XBig12= 2.04D-01 6.16D-02.
     99 vectors produced by pass  3 Test12= 1.65D-14 1.00D-09 XBig12= 7.19D-04 2.92D-03.
     99 vectors produced by pass  4 Test12= 1.65D-14 1.00D-09 XBig12= 1.36D-06 1.43D-04.
     82 vectors produced by pass  5 Test12= 1.65D-14 1.00D-09 XBig12= 1.47D-09 4.09D-06.
     15 vectors produced by pass  6 Test12= 1.65D-14 1.00D-09 XBig12= 1.51D-12 1.07D-07.
      3 vectors produced by pass  7 Test12= 1.65D-14 1.00D-09 XBig12= 1.60D-15 4.73D-09.
 InvSVY:  IOpt=1 It=  1 EMax= 8.88D-15
 Solved reduced A of dimension   595 with   102 vectors.
 Isotropic polarizability for W=    0.000000      159.49 Bohr**3.
 End of Minotr F.D. properties file   721 does not exist.
 End of Minotr F.D. properties file   722 does not exist.
 End of Minotr F.D. properties file   788 does not exist.

 **********************************************************************

            Population analysis using the SCF density.

 **********************************************************************

 Alpha  occ. eigenvalues --  -88.99217 -77.23831 -19.17111 -19.16987 -19.16498
 Alpha  occ. eigenvalues --  -19.10893 -19.09383 -14.44557 -14.39083 -14.38913
 Alpha  occ. eigenvalues --  -10.35118 -10.32598 -10.30318 -10.25724 -10.24627
 Alpha  occ. eigenvalues --  -10.24261 -10.22550  -8.00739  -6.64501  -5.95432
 Alpha  occ. eigenvalues --   -5.95081  -5.94634  -4.79274  -4.79168  -4.78985
 Alpha  occ. eigenvalues --   -1.08574  -1.04563  -1.00906  -0.99438  -0.98157
 Alpha  occ. eigenvalues --   -0.93892  -0.91058  -0.90357  -0.83797  -0.81775
 Alpha  occ. eigenvalues --   -0.72781  -0.71955  -0.68917  -0.68439  -0.61889
 Alpha  occ. eigenvalues --   -0.59915  -0.58828  -0.56442  -0.55426  -0.51326
 Alpha  occ. eigenvalues --   -0.50890  -0.48716  -0.47242  -0.46873  -0.46563
 Alpha  occ. eigenvalues --   -0.46249  -0.44886  -0.44051  -0.43097  -0.42840
 Alpha  occ. eigenvalues --   -0.42052  -0.41269  -0.40380  -0.39815  -0.38799
 Alpha  occ. eigenvalues --   -0.37780  -0.37667  -0.36063  -0.33164  -0.32574
 Alpha  occ. eigenvalues --   -0.32244  -0.30006  -0.29065  -0.27776  -0.27028
 Alpha  occ. eigenvalues --   -0.25975  -0.25896  -0.24757  -0.24390  -0.23323
 Alpha virt. eigenvalues --   -0.04602  -0.00372   0.00720   0.04268   0.06221
 Alpha virt. eigenvalues --    0.07945   0.08989   0.10300   0.11151   0.11855
 Alpha virt. eigenvalues --    0.12863   0.13259   0.13885   0.14113   0.16081
 Alpha virt. eigenvalues --    0.16429   0.18104   0.18412   0.19058   0.20046
 Alpha virt. eigenvalues --    0.21206   0.22287   0.23263   0.23562   0.24396
 Alpha virt. eigenvalues --    0.25077   0.27061   0.27338   0.30416   0.32188
 Alpha virt. eigenvalues --    0.34489   0.36294   0.37999   0.38668   0.39005
 Alpha virt. eigenvalues --    0.39540   0.40474   0.42913   0.43553   0.46580
 Alpha virt. eigenvalues --    0.47430   0.48147   0.48701   0.50166   0.51390
 Alpha virt. eigenvalues --    0.54582   0.56089   0.57261   0.57531   0.58205
 Alpha virt. eigenvalues --    0.59479   0.60222   0.61146   0.61880   0.63448
 Alpha virt. eigenvalues --    0.64163   0.65999   0.66282   0.67041   0.68428
 Alpha virt. eigenvalues --    0.69785   0.71882   0.75002   0.77162   0.79016
 Alpha virt. eigenvalues --    0.79575   0.80520   0.80975   0.81870   0.82315
 Alpha virt. eigenvalues --    0.82858   0.83425   0.84991   0.85692   0.86353
 Alpha virt. eigenvalues --    0.86864   0.86962   0.88123   0.88903   0.89535
 Alpha virt. eigenvalues --    0.89865   0.90704   0.93071   0.93993   0.94855
 Alpha virt. eigenvalues --    0.96181   0.96543   0.97285   0.97640   0.98730
 Alpha virt. eigenvalues --    1.00294   1.00352   1.01057   1.02453   1.04643
 Alpha virt. eigenvalues --    1.05025   1.06366   1.07335   1.08428   1.09845
 Alpha virt. eigenvalues --    1.10778   1.11914   1.14204   1.16841   1.19105
 Alpha virt. eigenvalues --    1.19336   1.19513   1.20940   1.21621   1.24173
 Alpha virt. eigenvalues --    1.27224   1.27382   1.29280   1.30472   1.31330
 Alpha virt. eigenvalues --    1.32367   1.33936   1.36131   1.36798   1.37747
 Alpha virt. eigenvalues --    1.39973   1.41391   1.42183   1.43443   1.44282
 Alpha virt. eigenvalues --    1.45277   1.48344   1.53827   1.55424   1.58165
 Alpha virt. eigenvalues --    1.63506   1.65726   1.66843   1.67435   1.68029
 Alpha virt. eigenvalues --    1.70435   1.72262   1.73685   1.75229   1.75888
 Alpha virt. eigenvalues --    1.77353   1.78634   1.79603   1.80530   1.80880
 Alpha virt. eigenvalues --    1.81450   1.82792   1.84165   1.85194   1.87619
 Alpha virt. eigenvalues --    1.88284   1.89488   1.89776   1.91405   1.92230
 Alpha virt. eigenvalues --    1.94473   1.95097   1.99079   2.00278   2.04649
 Alpha virt. eigenvalues --    2.12095   2.12472   2.13836   2.15298   2.16584
 Alpha virt. eigenvalues --    2.17048   2.18131   2.20239   2.21339   2.21837
 Alpha virt. eigenvalues --    2.23375   2.24281   2.24420   2.26492   2.27232
 Alpha virt. eigenvalues --    2.29301   2.30151   2.31035   2.31267   2.32009
 Alpha virt. eigenvalues --    2.38706   2.41286   2.42468   2.43816   2.44960
 Alpha virt. eigenvalues --    2.49005   2.56753   2.59357   2.61395   2.63406
 Alpha virt. eigenvalues --    2.64686   2.67417   2.69877   2.73120   2.74764
 Alpha virt. eigenvalues --    2.80537   2.85738   2.87604   2.90888   2.98749
 Alpha virt. eigenvalues --    3.02961   3.24744   3.41543   3.57473   3.72671
 Alpha virt. eigenvalues --    3.80565   3.91851   3.93660   3.97066   4.02515
 Alpha virt. eigenvalues --    4.03239   4.13748   4.16548   4.21642   4.25615
 Alpha virt. eigenvalues --    4.28952   4.29135   4.32797   4.54068   4.60615
          Condensed to atoms (all electrons):
               1          2          3          4          5          6
     1  C    4.116031  -0.017024  -0.033087   0.261761   0.000642   0.001992
     2  C   -0.017024   5.085140   0.593976  -0.033968   0.362037  -0.030487
     3  C   -0.033087   0.593976   4.742853   0.313493  -0.035049   0.372169
     4  N    0.261761  -0.033968   0.313493   7.103104   0.003283  -0.043025
     5  H    0.000642   0.362037  -0.035049   0.003283   0.502056  -0.003268
     6  H    0.001992  -0.030487   0.372169  -0.043025  -0.003268   0.491077
     7  O    0.586813   0.000673   0.002296  -0.094386   0.000005  -0.000101
     8  N    0.326333  -0.050716  -0.019567  -0.105364   0.003879  -0.000359
     9  C   -0.026245   0.451036  -0.030993  -0.018172  -0.025459   0.002983
    10  N    0.001464  -0.078411   0.004476   0.000229  -0.003885  -0.000127
    11  H   -0.000169   0.002830  -0.000022   0.000011  -0.000082   0.000001
    12  H   -0.000071  -0.002642   0.000283   0.000021   0.003176  -0.000005
    13  H   -0.008795   0.003507  -0.024796   0.296026  -0.000088  -0.005107
    14  P    0.000001  -0.000040  -0.000000  -0.000000  -0.000000  -0.000000
    15  O   -0.000001   0.000000   0.000000   0.000000  -0.000000  -0.000000
    16  O   -0.000008  -0.000018   0.000000   0.000000   0.000000  -0.000000
    17  O    0.000000  -0.000002  -0.000000  -0.000000   0.000000   0.000000
    18  O    0.000000   0.000000   0.000000  -0.000000  -0.000000  -0.000000
    19  H    0.000000   0.000000   0.000000  -0.000000   0.000000  -0.000000
    20  H    0.000000   0.000000  -0.000000  -0.000000   0.000000   0.000000
    21  S    0.000046   0.000011   0.000001   0.000013  -0.000000   0.000000
    22  C   -0.000000  -0.000000   0.000000   0.000000   0.000000  -0.000000
    23  H    0.000000   0.000000   0.000000   0.000000  -0.000000   0.000000
    24  H   -0.000000  -0.000000  -0.000000  -0.000000   0.000000  -0.000000
    25  H   -0.000000  -0.000000   0.000000  -0.000000   0.000000  -0.000000
    26  C   -0.000008   0.000000   0.000000  -0.000000   0.000000  -0.000000
    27  H    0.000052  -0.000000  -0.000000   0.000001   0.000000   0.000000
    28  H    0.000017  -0.000000  -0.000000  -0.000000   0.000000  -0.000000
    29  H    0.000000   0.000000   0.000000   0.000000  -0.000000   0.000000
    30  C   -0.016322   0.000842   0.000065   0.000126  -0.000015   0.000001
    31  H   -0.000785  -0.000134  -0.000073   0.000645   0.000001   0.000001
    32  H    0.000497  -0.000042  -0.000003   0.000009   0.000001   0.000000
    33  H    0.000656  -0.000095  -0.000010  -0.000034   0.000002  -0.000000
               7          8          9         10         11         12
     1  C    0.586813   0.326333  -0.026245   0.001464  -0.000169  -0.000071
     2  C    0.000673  -0.050716   0.451036  -0.078411   0.002830  -0.002642
     3  C    0.002296  -0.019567  -0.030993   0.004476  -0.000022   0.000283
     4  N   -0.094386  -0.105364  -0.018172   0.000229   0.000011   0.000021
     5  H    0.000005   0.003879  -0.025459  -0.003885  -0.000082   0.003176
     6  H   -0.000101  -0.000359   0.002983  -0.000127   0.000001  -0.000005
     7  O    8.108739  -0.085945   0.000408  -0.000057  -0.000010   0.000001
     8  N   -0.085945   7.277084   0.407512  -0.079919   0.001229   0.003766
     9  C    0.000408   0.407512   4.271867   0.372484  -0.006794  -0.032014
    10  N   -0.000057  -0.079919   0.372484   7.215546   0.148764   0.319403
    11  H   -0.000010   0.001229  -0.006794   0.148764   0.272332  -0.007417
    12  H    0.000001   0.003766  -0.032014   0.319403  -0.007417   0.349411
    13  H    0.008706   0.005806   0.000346   0.000017  -0.000000  -0.000001
    14  P   -0.000001  -0.000256   0.000108   0.010085  -0.010925   0.000009
    15  O   -0.000000   0.000025  -0.000004  -0.000080  -0.001166  -0.000001
    16  O   -0.000000  -0.000125   0.000384  -0.063908   0.126390   0.001109
    17  O    0.000000   0.000002   0.000138   0.000549  -0.000198   0.000569
    18  O   -0.000000   0.000000  -0.000000  -0.000022   0.000242   0.000002
    19  H    0.000000  -0.000000  -0.000000  -0.000021  -0.000018  -0.000015
    20  H    0.000000  -0.000000   0.000000   0.000007  -0.000047  -0.000000
    21  S   -0.000058   0.009750  -0.000016  -0.000075   0.000304   0.000000
    22  C   -0.000000  -0.000030   0.000000  -0.000003  -0.000005   0.000000
    23  H    0.000000   0.000001   0.000000   0.000000   0.000000   0.000000
    24  H   -0.000000  -0.000051  -0.000002   0.000017  -0.000139  -0.000000
    25  H   -0.000000  -0.000001   0.000000  -0.000001   0.000018   0.000000
    26  C   -0.000279  -0.000114  -0.000001   0.000000  -0.000006  -0.000000
    27  H    0.001055  -0.000096   0.000001   0.000000  -0.000000   0.000000
    28  H    0.000004  -0.000246  -0.000002   0.000000  -0.000006   0.000000
    29  H    0.000001   0.000003   0.000000  -0.000000   0.000000   0.000000
    30  C   -0.018211   0.035978  -0.004185  -0.001431   0.001160   0.000036
    31  H    0.033238  -0.039715   0.002192   0.000196   0.000003   0.000002
    32  H    0.000249  -0.008259   0.000079   0.000616  -0.001591   0.000002
    33  H    0.000139  -0.023066  -0.001561   0.001746  -0.000194   0.000013
              13         14         15         16         17         18
     1  C   -0.008795   0.000001  -0.000001  -0.000008   0.000000   0.000000
     2  C    0.003507  -0.000040   0.000000  -0.000018  -0.000002   0.000000
     3  C   -0.024796  -0.000000   0.000000   0.000000  -0.000000   0.000000
     4  N    0.296026  -0.000000   0.000000   0.000000  -0.000000  -0.000000
     5  H   -0.000088  -0.000000  -0.000000   0.000000   0.000000  -0.000000
     6  H   -0.005107  -0.000000  -0.000000  -0.000000   0.000000  -0.000000
     7  O    0.008706  -0.000001  -0.000000  -0.000000   0.000000  -0.000000
     8  N    0.005806  -0.000256   0.000025  -0.000125   0.000002   0.000000
     9  C    0.000346   0.000108  -0.000004   0.000384   0.000138  -0.000000
    10  N    0.000017   0.010085  -0.000080  -0.063908   0.000549  -0.000022
    11  H   -0.000000  -0.010925  -0.001166   0.126390  -0.000198   0.000242
    12  H   -0.000001   0.000009  -0.000001   0.001109   0.000569   0.000002
    13  H    0.346981   0.000000  -0.000000   0.000000   0.000000  -0.000000
    14  P    0.000000  12.397939   0.503294   0.409282   0.277529   0.279772
    15  O   -0.000000   0.503294   8.230593  -0.027518  -0.039642  -0.034357
    16  O    0.000000   0.409282  -0.027518   8.342994  -0.037599  -0.040119
    17  O    0.000000   0.277529  -0.039642  -0.037599   8.291352  -0.037657
    18  O   -0.000000   0.279772  -0.034357  -0.040119  -0.037657   8.275396
    19  H    0.000000  -0.003905   0.003033   0.001542   0.240643  -0.000483
    20  H   -0.000000  -0.003381   0.001336   0.003151  -0.000713   0.240046
    21  S   -0.000001  -0.004664   0.005667  -0.000089   0.000011   0.000122
    22  C    0.000000  -0.003862  -0.005787  -0.004306  -0.000019  -0.000837
    23  H   -0.000000   0.000785   0.000297   0.000070   0.000000  -0.000067
    24  H    0.000000   0.000861  -0.002624   0.013829   0.000014   0.000030
    25  H    0.000000   0.000586   0.015730  -0.001458   0.000001   0.001890
    26  C    0.000000   0.000126   0.000041   0.000015   0.000000  -0.000000
    27  H   -0.000000   0.000004   0.000000  -0.000000   0.000000   0.000000
    28  H    0.000000   0.000011   0.000005  -0.000060  -0.000000  -0.000000
    29  H   -0.000000  -0.000004  -0.000000   0.000000  -0.000000   0.000000
    30  C    0.000002  -0.003734  -0.013953  -0.002907  -0.000110  -0.000086
    31  H   -0.000003   0.000546   0.000345   0.000430  -0.000001  -0.000000
    32  H    0.000000   0.002883   0.031364  -0.004322  -0.000388   0.000073
    33  H    0.000002  -0.001290  -0.000866   0.013130   0.000056  -0.000005
              19         20         21         22         23         24
     1  C    0.000000   0.000000   0.000046  -0.000000   0.000000  -0.000000
     2  C    0.000000   0.000000   0.000011  -0.000000   0.000000  -0.000000
     3  C    0.000000  -0.000000   0.000001   0.000000   0.000000  -0.000000
     4  N   -0.000000  -0.000000   0.000013   0.000000   0.000000  -0.000000
     5  H    0.000000   0.000000  -0.000000   0.000000  -0.000000   0.000000
     6  H   -0.000000   0.000000   0.000000  -0.000000   0.000000  -0.000000
     7  O    0.000000   0.000000  -0.000058  -0.000000   0.000000  -0.000000
     8  N   -0.000000  -0.000000   0.009750  -0.000030   0.000001  -0.000051
     9  C   -0.000000   0.000000  -0.000016   0.000000   0.000000  -0.000002
    10  N   -0.000021   0.000007  -0.000075  -0.000003   0.000000   0.000017
    11  H   -0.000018  -0.000047   0.000304  -0.000005   0.000000  -0.000139
    12  H   -0.000015  -0.000000   0.000000   0.000000   0.000000  -0.000000
    13  H    0.000000  -0.000000  -0.000001   0.000000  -0.000000   0.000000
    14  P   -0.003905  -0.003381  -0.004664  -0.003862   0.000785   0.000861
    15  O    0.003033   0.001336   0.005667  -0.005787   0.000297  -0.002624
    16  O    0.001542   0.003151  -0.000089  -0.004306   0.000070   0.013829
    17  O    0.240643  -0.000713   0.000011  -0.000019   0.000000   0.000014
    18  O   -0.000483   0.240046   0.000122  -0.000837  -0.000067   0.000030
    19  H    0.329120   0.000087  -0.000001   0.000001  -0.000000  -0.000001
    20  H    0.000087   0.332373  -0.000005   0.000032  -0.000003   0.000111
    21  S   -0.000001  -0.000005  15.496791   0.236818  -0.038156  -0.042856
    22  C    0.000001   0.000032   0.236818   5.439115   0.351164   0.361309
    23  H   -0.000000  -0.000003  -0.038156   0.351164   0.530431  -0.027852
    24  H   -0.000001   0.000111  -0.042856   0.361309  -0.027852   0.480763
    25  H   -0.000001  -0.000058  -0.029787   0.360984  -0.017137  -0.020331
    26  C   -0.000000  -0.000000   0.229440  -0.033166  -0.002770  -0.003701
    27  H    0.000000  -0.000000  -0.033953   0.002730  -0.000024   0.000001
    28  H    0.000000   0.000000  -0.047149  -0.002555  -0.000865   0.005229
    29  H    0.000000  -0.000000  -0.033410  -0.002419   0.003490  -0.000562
    30  C   -0.000005   0.000005   0.082994  -0.008517   0.000574  -0.002959
    31  H   -0.000000  -0.000000  -0.047854   0.001018  -0.000028   0.000168
    32  H    0.000021  -0.000010  -0.016925   0.000261  -0.000030  -0.000018
    33  H   -0.000004   0.000003  -0.038634  -0.001038  -0.000129   0.005132
              25         26         27         28         29         30
     1  C   -0.000000  -0.000008   0.000052   0.000017   0.000000  -0.016322
     2  C   -0.000000   0.000000  -0.000000  -0.000000   0.000000   0.000842
     3  C    0.000000   0.000000  -0.000000  -0.000000   0.000000   0.000065
     4  N   -0.000000  -0.000000   0.000001  -0.000000   0.000000   0.000126
     5  H    0.000000   0.000000   0.000000   0.000000  -0.000000  -0.000015
     6  H   -0.000000  -0.000000   0.000000  -0.000000   0.000000   0.000001
     7  O   -0.000000  -0.000279   0.001055   0.000004   0.000001  -0.018211
     8  N   -0.000001  -0.000114  -0.000096  -0.000246   0.000003   0.035978
     9  C    0.000000  -0.000001   0.000001  -0.000002   0.000000  -0.004185
    10  N   -0.000001   0.000000   0.000000   0.000000  -0.000000  -0.001431
    11  H    0.000018  -0.000006  -0.000000  -0.000006   0.000000   0.001160
    12  H    0.000000  -0.000000   0.000000   0.000000   0.000000   0.000036
    13  H    0.000000   0.000000  -0.000000   0.000000  -0.000000   0.000002
    14  P    0.000586   0.000126   0.000004   0.000011  -0.000004  -0.003734
    15  O    0.015730   0.000041   0.000000   0.000005  -0.000000  -0.013953
    16  O   -0.001458   0.000015  -0.000000  -0.000060   0.000000  -0.002907
    17  O    0.000001   0.000000   0.000000  -0.000000  -0.000000  -0.000110
    18  O    0.001890  -0.000000   0.000000  -0.000000   0.000000  -0.000086
    19  H   -0.000001  -0.000000   0.000000   0.000000   0.000000  -0.000005
    20  H   -0.000058  -0.000000  -0.000000   0.000000  -0.000000   0.000005
    21  S   -0.029787   0.229440  -0.033953  -0.047149  -0.033410   0.082994
    22  C    0.360984  -0.033166   0.002730  -0.002555  -0.002419  -0.008517
    23  H   -0.017137  -0.002770  -0.000024  -0.000865   0.003490   0.000574
    24  H   -0.020331  -0.003701   0.000001   0.005229  -0.000562  -0.002959
    25  H    0.407366   0.002556  -0.000051   0.000023  -0.000028   0.000146
    26  C    0.002556   5.403494   0.369444   0.364518   0.367863  -0.017860
    27  H   -0.000051   0.369444   0.464709  -0.020734  -0.020761  -0.001389
    28  H    0.000023   0.364518  -0.020734   0.509920  -0.029111  -0.001284
    29  H   -0.000028   0.367863  -0.020761  -0.029111   0.496214   0.001018
    30  C    0.000146  -0.017860  -0.001389  -0.001284   0.001018   5.383997
    31  H   -0.000014   0.001647   0.002999   0.000497  -0.000101   0.344751
    32  H    0.000016   0.000880   0.000036   0.000110  -0.000025   0.342123
    33  H   -0.000184  -0.001170   0.000004   0.005155  -0.000136   0.371213
              31         32         33
     1  C   -0.000785   0.000497   0.000656
     2  C   -0.000134  -0.000042  -0.000095
     3  C   -0.000073  -0.000003  -0.000010
     4  N    0.000645   0.000009  -0.000034
     5  H    0.000001   0.000001   0.000002
     6  H    0.000001   0.000000  -0.000000
     7  O    0.033238   0.000249   0.000139
     8  N   -0.039715  -0.008259  -0.023066
     9  C    0.002192   0.000079  -0.001561
    10  N    0.000196   0.000616   0.001746
    11  H    0.000003  -0.001591  -0.000194
    12  H    0.000002   0.000002   0.000013
    13  H   -0.000003   0.000000   0.000002
    14  P    0.000546   0.002883  -0.001290
    15  O    0.000345   0.031364  -0.000866
    16  O    0.000430  -0.004322   0.013130
    17  O   -0.000001  -0.000388   0.000056
    18  O   -0.000000   0.000073  -0.000005
    19  H   -0.000000   0.000021  -0.000004
    20  H   -0.000000  -0.000010   0.000003
    21  S   -0.047854  -0.016925  -0.038634
    22  C    0.001018   0.000261  -0.001038
    23  H   -0.000028  -0.000030  -0.000129
    24  H    0.000168  -0.000018   0.005132
    25  H   -0.000014   0.000016  -0.000184
    26  C    0.001647   0.000880  -0.001170
    27  H    0.002999   0.000036   0.000004
    28  H    0.000497   0.000110   0.005155
    29  H   -0.000101  -0.000025  -0.000136
    30  C    0.344751   0.342123   0.371213
    31  H    0.477407  -0.014004  -0.016176
    32  H   -0.014004   0.398945  -0.019555
    33  H   -0.016176  -0.019555   0.451437
 Mulliken charges:
               1
     1  C    0.806210
     2  C   -0.286471
     3  C    0.113989
     4  N   -0.683773
     5  H    0.192765
     6  H    0.214256
     7  O   -0.543279
     8  N   -0.657540
     9  C    0.635910
    10  N   -0.847657
    11  H    0.475506
    12  H    0.364364
    13  H    0.377398
    14  P    1.148241
    15  O   -0.665732
    16  O   -0.729889
    17  O   -0.694536
    18  O   -0.683938
    19  H    0.430010
    20  H    0.427065
    21  S    0.271666
    22  C   -0.690889
    23  H    0.200249
    24  H    0.233631
    25  H    0.279732
    26  C   -0.680951
    27  H    0.235972
    28  H    0.216523
    29  H    0.217965
    30  C   -0.472065
    31  H    0.252803
    32  H    0.287007
    33  H    0.255458
 Sum of Mulliken charges =  -0.00000
 Mulliken charges with hydrogens summed into heavy atoms:
               1
     1  C    0.806210
     2  C   -0.093706
     3  C    0.328245
     4  N   -0.306375
     7  O   -0.543279
     8  N   -0.657540
     9  C    0.635910
    10  N   -0.007786
    14  P    1.148241
    15  O   -0.665732
    16  O   -0.729889
    17  O   -0.264526
    18  O   -0.256873
    21  S    0.271666
    22  C    0.022723
    26  C   -0.010491
    30  C    0.323203
 APT charges:
               1
     1  C    1.167483
     2  C   -0.474952
     3  C    0.473111
     4  N   -0.706006
     5  H    0.042773
     6  H    0.057771
     7  O   -0.821087
     8  N   -1.161163
     9  C    1.062057
    10  N   -0.898716
    11  H    0.597426
    12  H    0.235055
    13  H    0.237259
    14  P    2.179162
    15  O   -0.920884
    16  O   -1.107935
    17  O   -0.846497
    18  O   -0.861009
    19  H    0.293039
    20  H    0.296327
    21  S   -0.229231
    22  C   -0.045160
    23  H   -0.010151
    24  H    0.043595
    25  H    0.112855
    26  C   -0.016435
    27  H    0.052764
    28  H    0.009724
    29  H    0.016970
    30  C    1.115699
    31  H    0.012194
    32  H    0.096299
    33  H   -0.002336
 Sum of APT charges =   0.00000
 APT charges with hydrogens summed into heavy atoms:
               1
     1  C    1.167483
     2  C   -0.432179
     3  C    0.530882
     4  N   -0.468748
     7  O   -0.821087
     8  N   -1.161163
     9  C    1.062057
    10  N   -0.066235
    14  P    2.179162
    15  O   -0.920884
    16  O   -1.107935
    17  O   -0.553458
    18  O   -0.564681
    21  S   -0.229231
    22  C    0.101139
    26  C    0.063023
    30  C    1.221855
 Electronic spatial extent (au):  <R**2>=           5981.6466
 Charge=             -0.0000 electrons
 Dipole moment (field-independent basis, Debye):
    X=             -1.5681    Y=              4.4793    Z=              6.0929  Tot=              7.7231
 Quadrupole moment (field-independent basis, Debye-Ang):
   XX=            -86.1198   YY=           -111.4582   ZZ=           -109.0754
   XY=             -8.4637   XZ=            -16.5536   YZ=              5.7347
 Traceless Quadrupole moment (field-independent basis, Debye-Ang):
   XX=             16.0980   YY=             -9.2404   ZZ=             -6.8576
   XY=             -8.4637   XZ=            -16.5536   YZ=              5.7347
 Octapole moment (field-independent basis, Debye-Ang**2):
  XXX=             16.8526  YYY=              4.7346  ZZZ=             58.1289  XYY=            -37.6063
  XXY=             13.2455  XXZ=             20.7215  XZZ=            -44.5830  YZZ=             33.0909
  YYZ=             58.3437  XYZ=            -40.0820
 Hexadecapole moment (field-independent basis, Debye-Ang**3):
 XXXX=          -1948.5924 YYYY=          -3197.6096 ZZZZ=          -1907.0210 XXXY=            155.1112
 XXXZ=            595.2493 YYYX=            -61.7329 YYYZ=           -476.6878 ZZZX=            638.8106
 ZZZY=           -563.4565 XXYY=           -759.7124 XXZZ=           -518.9482 YYZZ=           -784.9780
 XXYZ=            -99.2452 YYXZ=            152.9162 ZZXY=            -21.5746
 N-N= 1.619840922791D+03 E-N=-6.908612578445D+03  KE= 1.546064987716D+03
  Exact polarizability: 160.715  -4.754 177.662 -55.211  18.874 140.081
 Approx polarizability: 214.764   3.569 267.069 -64.594   7.450 205.915
 R6APFD:  NTU= -4 IXU= 1 FactS= 1.050
 Calling FoFJK, ICntrl=    100127 FMM=F ISym2X=0 I1Cent= 0 IOpClX= 0 NMat=1 NMatS=1 NMatT=0.
 -------------------------------------------------------------------
 Center     Atomic                   Forces (Hartrees/Bohr)
 Number     Number              X              Y              Z
 -------------------------------------------------------------------
      1        6           0.000030165    0.000007783   -0.000019471
      2        6           0.000003220    0.000002502   -0.000000692
      3        6           0.000004370   -0.000002602   -0.000002676
      4        7           0.000001227   -0.000004289   -0.000001359
      5        1           0.000000445    0.000001279    0.000001419
      6        1           0.000001246    0.000000274    0.000000767
      7        8          -0.000041928   -0.000052786    0.000042136
      8        7          -0.005231943   -0.005229684   -0.001728455
      9        6           0.000006479    0.000001794   -0.000011003
     10        7          -0.000002658    0.000022715    0.000007618
     11        1          -0.000382860   -0.000696469    0.000366933
     12        1          -0.000000408    0.000001012    0.000000855
     13        1           0.000000431    0.000000840    0.000001580
     14       15           0.000001872    0.000020723   -0.000000772
     15        8           0.000008954   -0.000027173    0.000025629
     16        8          -0.000009726   -0.000011358   -0.000019872
     17        8           0.000002761    0.000002273   -0.000000320
     18        8          -0.000002233    0.000001035   -0.000000949
     19        1          -0.000001980    0.000000461   -0.000001195
     20        1          -0.000000474   -0.000001109   -0.000000241
     21       16          -0.003116911   -0.005110768   -0.003136518
     22        6          -0.000003271   -0.000003276    0.000013907
     23        1          -0.000001912    0.000000430    0.000000433
     24        1           0.000009803    0.000008735   -0.000031909
     25        1          -0.000014696    0.000005025   -0.000012241
     26        6           0.000003990   -0.000032405   -0.000005222
     27        1           0.000002306    0.000022741   -0.000007966
     28        1           0.000000563    0.000002286   -0.000005950
     29        1          -0.000000293    0.000002166    0.000000647
     30        6           0.008797583    0.011051816    0.004518806
     31        1          -0.000031365   -0.000039436   -0.000003947
     32        1          -0.000008023    0.000017716    0.000001469
     33        1          -0.000024735    0.000037751    0.000008561
 -------------------------------------------------------------------
 Cartesian Forces:  Max     0.011051816 RMS     0.001809428
 FormGI is forming the generalized inverse of G from B-inverse, IUseBI=4.

 GradGradGradGradGradGradGradGradGradGradGradGradGradGradGradGradGradGrad
 Berny optimization.
 Internal  Forces:  Max     0.004913196 RMS     0.000833079
 Search for a saddle point.
 Step number   1 out of a maximum of  198
 All quantities printed in internal units (Hartrees-Bohrs-Radians)
 Swapping is turned off.
 Second derivative matrix not updated -- analytic derivatives used.
 ITU=  0
     Eigenvalues ---   -0.02458   0.00029   0.00043   0.00076   0.00124
     Eigenvalues ---    0.00164   0.00255   0.00313   0.00325   0.00379
     Eigenvalues ---    0.00425   0.00516   0.00592   0.00615   0.00733
     Eigenvalues ---    0.00861   0.01093   0.01163   0.01501   0.01633
     Eigenvalues ---    0.01772   0.01856   0.02254   0.02281   0.02429
     Eigenvalues ---    0.02635   0.02763   0.03041   0.03106   0.03624
     Eigenvalues ---    0.03747   0.03916   0.04072   0.04081   0.04487
     Eigenvalues ---    0.04812   0.05126   0.05545   0.06423   0.07655
     Eigenvalues ---    0.08244   0.08819   0.09340   0.09907   0.10170
     Eigenvalues ---    0.10394   0.10819   0.11003   0.11237   0.11476
     Eigenvalues ---    0.12127   0.12566   0.12864   0.13508   0.14540
     Eigenvalues ---    0.15665   0.16125   0.17662   0.19154   0.19773
     Eigenvalues ---    0.20109   0.20728   0.21581   0.22394   0.29235
     Eigenvalues ---    0.31105   0.32429   0.32600   0.32961   0.34244
     Eigenvalues ---    0.34536   0.34948   0.35013   0.35306   0.35743
     Eigenvalues ---    0.35987   0.36954   0.37158   0.37542   0.37690
     Eigenvalues ---    0.38274   0.47506   0.48559   0.49688   0.52130
     Eigenvalues ---    0.52372   0.53023   0.56040   0.56792   0.59910
     Eigenvalues ---    0.695861000.000001000.000001000.000001000.00000
     Eigenvalues --- 1000.000001000.000001000.000001000.000001000.00000
     Eigenvalues --- 1000.000001000.000001000.000001000.000001000.00000
     Eigenvalues --- 1000.000001000.000001000.000001000.000001000.00000
     Eigenvalues --- 1000.000001000.000001000.000001000.000001000.00000
     Eigenvalues --- 1000.000001000.000001000.000001000.000001000.00000
     Eigenvalues --- 1000.000001000.000001000.000001000.000001000.00000
     Eigenvalues --- 1000.000001000.000001000.000001000.000001000.00000
     Eigenvalues --- 1000.000001000.000001000.000001000.000001000.00000
     Eigenvalues --- 1000.000001000.000001000.000001000.000001000.00000
     Eigenvalues --- 1000.000001000.000001000.000001000.000001000.00000
     Eigenvalues --- 1000.000001000.000001000.000001000.000001000.00000
     Eigenvalues --- 1000.000001000.000001000.000001000.000001000.00000
     Eigenvalues --- 1000.000001000.000001000.000001000.000001000.00000
     Eigenvalues --- 1000.000001000.000001000.000001000.000001000.00000
     Eigenvalues --- 1000.000001000.000001000.000001000.000001000.00000
     Eigenvalues --- 1000.000001000.000001000.000001000.000001000.00000
     Eigenvalues --- 1000.000001000.000001000.000001000.000001000.00000
     Eigenvalues --- 1000.000001000.000001000.000001000.000001000.00000
     Eigenvalues --- 1000.000001000.000001000.000001000.000001000.00000
     Eigenvalues --- 1000.000001000.000001000.000001000.000001000.00000
     Eigenvalues --- 1000.000001000.000001000.000001000.000001000.00000
     Eigenvalues --- 1000.000001000.000001000.000001000.000001000.00000
     Eigenvalues --- 1000.000001000.000001000.000001000.000001000.00000
     Eigenvalues --- 1000.000001000.000001000.000001000.000001000.00000
 Eigenvectors required to have negative eigenvalues:
                          R12       R27      D102       D99       A64
   1                    0.54981  -0.53470  -0.30960   0.27567   0.20425
                          D98      D103       R17       A58       A56
   1                   -0.17319   0.12038   0.11861   0.11774  -0.11421
 RFO step:  Lambda0=9.349164030D-10 Lambda=-7.16074205D-07.
 Linear search not attempted -- option 19 set.
 Iteration  1 RMS(Cart)=  0.00510858 RMS(Int)=  0.00000957
 Iteration  2 RMS(Cart)=  0.00001653 RMS(Int)=  0.00000302
 Iteration  3 RMS(Cart)=  0.00000018 RMS(Int)=  0.00000302
 Iteration  1 RMS(Cart)=  0.00000013 RMS(Int)=  0.00000005
 Variable       Old X    -DE/DX   Delta X   Delta X   Delta X     New X
                                 (Linear)    (Quad)   (Total)
   X11       -1.41176  -0.00068   0.00000   0.00000   0.00000  -1.41176
   Y11       -2.10795  -0.00122   0.00000   0.00000   0.00000  -2.10795
   Z11        2.14462   0.00081   0.00000   0.00000   0.00000   2.14462
   X30        0.66863   0.00068   0.00000   0.00000   0.00000   0.66863
   Y30        1.60557   0.00122   0.00000   0.00000   0.00000   1.60557
   Z30       -0.90169  -0.00081   0.00000   0.00000   0.00000  -0.90169
    R1        2.65989  -0.00001   0.00000   0.00003   0.00003   2.65992
    R2        2.31367   0.00055   0.00000  -0.00011  -0.00011   2.31357
    R3        2.58280   0.00015   0.00000  -0.00008  -0.00008   2.58272
    R4        2.55655  -0.00002   0.00000  -0.00001  -0.00001   2.55654
    R5        2.04727  -0.00000   0.00000  -0.00000  -0.00000   2.04727
    R6        2.72659   0.00000   0.00000  -0.00001  -0.00001   2.72658
    R7        2.56324  -0.00002   0.00000  -0.00002  -0.00002   2.56322
    R8        2.05099  -0.00000   0.00000   0.00000   0.00000   2.05099
    R9        1.91001   0.00000   0.00000  -0.00000  -0.00000   1.91000
   R10        4.05299   0.00021   0.00000   0.00097   0.00097   4.05396
   R11        2.53697  -0.00025   0.00000  -0.00003  -0.00003   2.53695
   R12        3.90363  -0.00132   0.00000   0.00065   0.00065   3.90429
   R13        4.09567   0.00178   0.00000   0.00030   0.00030   4.09597
   R14        2.49786  -0.00051   0.00000  -0.00002  -0.00002   2.49784
   R15        2.00332  -0.00027   0.00000  -0.00012  -0.00012   2.00321
   R16        1.90613   0.00000   0.00000  -0.00000  -0.00000   1.90612
   R17        3.02638  -0.00042   0.00000   0.00078   0.00079   3.02717
   R18        2.82618  -0.00035   0.00000  -0.00003  -0.00003   2.82616
   R19        2.87402  -0.00024   0.00000  -0.00006  -0.00006   2.87396
   R20        3.10692  -0.00000   0.00000   0.00008   0.00008   3.10701
   R21        3.09345  -0.00000   0.00000  -0.00006  -0.00006   3.09339
   R22        4.60138  -0.00044   0.00000  -0.00391  -0.00391   4.59748
   R23        1.82968   0.00000   0.00000   0.00000   0.00000   1.82969
   R24        1.82906   0.00000   0.00000   0.00000   0.00000   1.82906
   R25        3.41428   0.00005   0.00000  -0.00005  -0.00005   3.41423
   R26        3.41915   0.00118   0.00000  -0.00017  -0.00017   3.41898
   R27        4.38687  -0.00065   0.00000   0.00028   0.00027   4.38714
   R28        4.66412   0.00202   0.00000   0.00045   0.00045   4.66457
   R29        2.06738  -0.00000   0.00000  -0.00001  -0.00001   2.06737
   R30        2.06657  -0.00003   0.00000  -0.00012  -0.00012   2.06645
   R31        2.06129   0.00002   0.00000   0.00008   0.00008   2.06138
   R32        2.06586   0.00002   0.00000   0.00006   0.00006   2.06592
   R33        2.06954  -0.00006   0.00000  -0.00005  -0.00005   2.06950
   R34        2.06641  -0.00000   0.00000   0.00000   0.00000   2.06641
   R35        4.65175  -0.00094   0.00000  -0.00425  -0.00425   4.64750
   R36        2.03888  -0.00375   0.00000  -0.00008  -0.00008   2.03880
   R37        2.05133  -0.00000   0.00000   0.00008   0.00008   2.05141
   R38        2.04048  -0.00011   0.00000  -0.00010  -0.00009   2.04039
    A1        2.08287  -0.00007   0.00000   0.00000   0.00000   2.08287
    A2        2.02366  -0.00004   0.00000   0.00003   0.00003   2.02370
    A3        2.17665   0.00011   0.00000  -0.00004  -0.00004   2.17662
    A4        2.11985  -0.00001   0.00000   0.00000   0.00000   2.11985
    A5        2.04918   0.00002   0.00000  -0.00002  -0.00002   2.04917
    A6        2.11406  -0.00001   0.00000   0.00001   0.00001   2.11407
    A7        2.10181  -0.00001   0.00000  -0.00002  -0.00002   2.10180
    A8        2.14861   0.00000   0.00000   0.00001   0.00001   2.14861
    A9        2.03275   0.00000   0.00000   0.00001   0.00001   2.03276
   A10        2.14951  -0.00001   0.00000  -0.00001  -0.00001   2.14950
   A11        2.00835   0.00001   0.00000   0.00000   0.00000   2.00836
   A12        2.12503   0.00000   0.00000   0.00001   0.00001   2.12503
   A13        1.51957   0.00026   0.00000  -0.00003  -0.00003   1.51954
   A14        2.13716   0.00003   0.00000  -0.00004  -0.00004   2.13712
   A15        1.95946  -0.00130   0.00000   0.00015   0.00015   1.95961
   A16        1.44636  -0.00025   0.00000   0.00022   0.00022   1.44658
   A17        2.17069   0.00137   0.00000  -0.00015  -0.00015   2.17054
   A18        2.67225   0.00011   0.00000  -0.00024  -0.00024   2.67201
   A19        2.10445   0.00001   0.00000   0.00004   0.00004   2.10450
   A20        2.10024  -0.00005   0.00000  -0.00007  -0.00007   2.10017
   A21        2.07847   0.00004   0.00000   0.00003   0.00003   2.07850
   A22        2.17726   0.00005   0.00000   0.00009   0.00009   2.17735
   A23        2.07905  -0.00005   0.00000   0.00012   0.00012   2.07917
   A24        2.02605   0.00000   0.00000  -0.00013  -0.00013   2.02592
   A25        2.12612  -0.00010   0.00000  -0.00002  -0.00002   2.12610
   A26        1.91686  -0.00006   0.00000  -0.00005  -0.00005   1.91681
   A27        1.88452   0.00012   0.00000   0.00006   0.00006   1.88458
   A28        1.82745   0.00009   0.00000  -0.00010  -0.00010   1.82735
   A29        1.86680  -0.00003   0.00000   0.00010   0.00010   1.86690
   A30        1.81857  -0.00001   0.00000   0.00001   0.00001   1.81858
   A31        1.61769  -0.00083   0.00000   0.00197   0.00197   1.61966
   A32        1.91846  -0.00098   0.00000  -0.00173  -0.00173   1.91673
   A33        1.87279   0.00000   0.00000   0.00001   0.00001   1.87280
   A34        1.88321   0.00000   0.00000  -0.00001  -0.00001   1.88321
   A35        1.75956   0.00037   0.00000   0.00055   0.00055   1.76012
   A36        1.83455   0.00085   0.00000   0.00016   0.00016   1.83471
   A37        2.26044   0.00024   0.00000   0.00121   0.00120   2.26163
   A38        1.61712  -0.00094   0.00000   0.00087   0.00086   1.61799
   A39        1.40019   0.00033   0.00000   0.00316   0.00315   1.40334
   A40        1.91886  -0.00001   0.00000   0.00014   0.00014   1.91900
   A41        1.92393   0.00000   0.00000  -0.00013  -0.00013   1.92380
   A42        1.85210   0.00002   0.00000  -0.00026  -0.00026   1.85183
   A43        1.94221  -0.00000   0.00000   0.00012   0.00012   1.94233
   A44        1.93655  -0.00027   0.00000   0.00016   0.00016   1.93671
   A45        1.88795   0.00026   0.00000  -0.00005  -0.00006   1.88789
   A46        2.10152   0.00050   0.00000   0.00281   0.00280   2.10432
   A47        1.87944  -0.00022   0.00000  -0.00021  -0.00021   1.87923
   A48        1.93147   0.00099   0.00000   0.00015   0.00015   1.93163
   A49        1.92892  -0.00024   0.00000  -0.00005  -0.00005   1.92887
   A50        1.90074  -0.00033   0.00000   0.00020   0.00020   1.90094
   A51        1.90763   0.00008   0.00000  -0.00011  -0.00011   1.90753
   A52        1.91498  -0.00028   0.00000   0.00002   0.00002   1.91499
   A53        1.74694  -0.00094   0.00000   0.00010   0.00009   1.74703
   A54        2.80699   0.00491   0.00000   0.00000   0.00000   2.80699
   A55        1.74560  -0.00294   0.00000  -0.00009  -0.00009   1.74551
   A56        1.54485   0.00081   0.00000  -0.00034  -0.00034   1.54451
   A57        1.71215  -0.00165   0.00000   0.00006   0.00007   1.71222
   A58        1.54983  -0.00013   0.00000   0.00034   0.00033   1.55016
   A59        2.12006  -0.00183   0.00000  -0.00016  -0.00016   2.11991
   A60        2.11862   0.00226   0.00000  -0.00007  -0.00007   2.11855
   A61        2.04418  -0.00044   0.00000   0.00022   0.00021   2.04439
   A62        1.12311  -0.00010   0.00000  -0.00025  -0.00025   1.12286
   A63        2.65813   0.00219   0.00000   0.00005   0.00005   2.65818
   A64        2.34330  -0.00137   0.00000  -0.00006  -0.00006   2.34324
   A65        2.40513  -0.00135   0.00000   0.00014   0.00014   2.40527
   A66        1.88212   0.00020   0.00000   0.00410   0.00409   1.88621
   A67        3.25896   0.00080   0.00000   0.00036   0.00035   3.25930
[...]
 0.00155290,0.00174211,-0.00002304,-0.00016166,0.00018840,0.00039945,-0
 .00063383,0.00031025,-0.00026060,0.00043735,0.00001478,-0.04696099,0.0
 0207612,0.00199786,-0.00034678,0.00439589,-0.00920814,0.05068812,0.000
 25773,0.00005036,-0.00010062,-0.00000396,-0.00003779,0.00000069,0.0000
 3426,0.00004049,-0.00001852,-0.00007641,-0.00001661,0.00004855,-0.0000
 0366,0.00000037,0.00000517,-0.00000034,-0.00000131,0.00000342,-0.00021
 459,0.00003674,-0.00004579,-0.00011420,-0.00015771,0.00004303,0.000099
 31,0.00024192,-0.00005925,0.00005918,-0.00019101,-0.00005640,-0.000132
 67,0.00012597,0.00010604,0.00000574,0.00001017,-0.00000423,0.00001510,
 -0.00000860,0.00000918,-0.00036323,0.00011781,-0.00017699,0.00013612,-
 0.00016971,0.00010522,0.00027371,-0.00006509,-0.00000771,0.00008582,-0
 .00001506,0.00002959,0.00015103,-0.00001705,0.00001715,0.00000078,0.00
 001494,0.00000050,-0.00002968,-0.00003595,0.00000343,-0.00641751,0.002
 75272,-0.01743250,0.00093192,0.00265314,-0.00071533,0.00003244,-0.0002
 8395,0.00000508,-0.00021266,-0.00016990,0.00110347,-0.00019842,0.00023
 309,0.00012668,0.00240614,-0.10534564,0.11327585,-0.00130177,-0.011249
 32,0.02780331,0.00314844,0.11127877,-0.00024994,-0.00045625,0.00017321
 ,-0.00004870,-0.00007179,0.00001840,0.00000667,-0.00000523,-0.00000529
 ,-0.00000899,0.00012734,-0.00001159,-0.00002685,0.00001181,0.00002003,
 0.00000065,0.00000182,0.00000268,0.00019484,0.00015094,-0.00006557,-0.
 00054366,0.00034410,0.00083594,0.00004964,0.00046214,-0.00003543,0.000
 07513,-0.00021340,-0.00003086,-0.00012974,0.00010081,0.00008337,0.0000
 0222,0.00000594,-0.00000966,-0.00002841,0.00000583,0.00001567,-0.00025
 853,0.00011083,-0.00026413,0.00005411,-0.00016066,0.00014218,0.0002559
 9,-0.00001183,0.00005183,0.00005564,-0.00002490,0.00004880,0.00009264,
 -0.00003527,0.00003139,0.00000778,0.00001717,-0.00000199,-0.00002145,-
 0.00002093,-0.00000370,-0.00864895,0.00168877,-0.01890591,0.00078010,0
 .00137990,0.00200525,0.00011818,-0.00022544,-0.00023712,0.00010030,-0.
 00128435,-0.00009212,-0.00014243,0.00025791,0.00030861,0.00578614,0.11
 721752,-0.26475328,0.00053577,-0.00276280,0.00566896,0.00099759,-0.121
 90450,0.28441821,-0.00000445,-0.00025060,-0.00001127,-0.00005321,-0.00
 000616,0.00002635,-0.00000530,-0.00001586,0.00000572,-0.00006275,0.000
 10077,0.00004692,-0.00001879,0.00000536,0.00000966,-0.00000321,0.00000
 100,0.00000641,-0.00002504,0.00013517,0.00005826,-0.00009726,0.0001957
 0,0.00047523,0.00011194,0.00025093,-0.00011982,0.00002281,-0.00011077,
 0.00003605,-0.00001849,0.00004089,-0.00002691,0.00000118,0.00001084,-0
 .00001031,-0.00001465,-0.00001201,0.00000471,-0.00007015,0.00046977,-0
 .00022317,-0.00001543,-0.00038444,0.00007345,0.00005843,-0.00016136,0.
 00007005,-0.00006753,-0.00010839,0.00006241,0.00009365,-0.00014998,0.0
 0000476,0.00002797,0.00003174,0.00000373,-0.00001367,0.00001124,0.0000
 0072,-0.01636174,-0.00169179,0.00090585,0.00116037,0.00076860,0.000382
 69,0.00012860,-0.00097628,-0.00002181,-0.00009739,-0.00011250,0.000007
 87,0.00005684,0.00011520,-0.00014088,-0.28464192,0.00334004,0.10710398
 ,-0.00684239,-0.00099918,0.00337248,0.00239096,0.00081703,-0.00069315,
 0.30382761,-0.00035233,-0.00053367,0.00028471,-0.00002605,-0.00000021,
 -0.00000701,-0.00002229,-0.00004793,0.00001630,0.00009919,0.00009050,-
 0.00012286,-0.00001287,0.00000693,0.00000941,0.00000688,0.00000421,-0.
 00000142,0.00039954,0.00020678,-0.00018273,-0.00004778,0.00030676,0.00
 047320,0.00001898,0.00015407,-0.00001766,0.00003606,-0.00005797,-0.000
 00444,-0.00002879,0.00004637,0.00001715,-0.00000115,0.00000477,-0.0000
 0316,-0.00002133,0.00000891,0.00001470,-0.00022026,0.00027384,-0.00008
 550,0.00004753,-0.00028353,0.00002849,0.00009479,-0.00010118,-0.000011
 10,0.00001646,-0.00004462,0.00002446,0.00013200,-0.00007667,-0.0000150
 2,0.00000501,0.00001542,0.00000144,-0.00002654,-0.00001166,0.00000623,
 -0.01512054,-0.00247889,0.00129726,-0.00068572,0.00139776,0.00122276,0
 .00067390,-0.00030674,-0.00025208,-0.00000348,-0.00017743,0.00003189,0
 .00008966,0.00012543,-0.00012396,0.00143191,-0.04729272,0.00400879,0.0
 2886006,0.00276934,-0.01205124,-0.01448454,0.00020541,0.00574411,-0.00
 046727,0.04635658,-0.00040199,-0.00058389,0.00027308,-0.00006080,-0.00
 002568,0.00000110,-0.00002040,-0.00004109,0.00001629,0.00003089,0.0001
 5883,-0.00006981,-0.00002492,0.00001032,0.00001585,0.00000443,0.000002
 71,0.00000440,0.00032510,0.00022341,-0.00008797,-0.00017920,0.00055343
 ,0.00090977,0.00002518,0.00029548,-0.00006009,0.00005787,-0.00010011,0
 .00003448,-0.00004334,0.00002454,-0.00002912,-0.00000217,0.00000282,-0
 .00000834,-0.00003358,0.00000769,0.00002053,-0.00014802,0.00036039,-0.
 00038497,-0.00009046,-0.00039786,0.00013208,0.00013545,-0.00003917,0.0
 0015192,-0.00003782,-0.00008156,0.00009197,0.00007279,-0.00008723,0.00
 003050,0.00003057,0.00002760,0.00000318,0.00000051,-0.00000716,-0.0000
 0177,-0.02309734,-0.00263043,0.00458224,0.00040509,0.00149828,0.000490
 35,0.00062989,-0.00019878,0.00012859,0.00004351,-0.00017233,-0.0001655
 5,-0.00016090,0.00028688,-0.00012248,0.10275652,0.00148291,-0.08950949
 ,0.00217728,0.00113818,-0.00172122,0.02657101,-0.00168023,-0.00894040,
 -0.10922994,0.00151948,0.09688462,0.00876349,0.02653099,-0.00866014,0.
 00367752,0.00220588,-0.00078172,-0.00031388,0.00058209,-0.00016557,0.0
 0173387,-0.00697180,0.00014497,0.00126884,-0.00054196,-0.00076199,-0.0
 0005321,-0.00009637,-0.00030470,-0.00579555,-0.00832255,0.00616266,0.0
 0147142,-0.01434430,-0.03786500,-0.00802900,-0.02444003,0.00648020,-0.
 00304018,0.01211684,0.00119461,0.00634594,-0.00584996,-0.00438631,-0.0
 0052515,-0.00023511,0.00019812,0.00126189,0.00011868,-0.00082893,0.005
 17679,-0.00118801,-0.00596143,-0.00290497,-0.00008028,0.00338515,-0.00
 549500,0.00095568,0.00479554,-0.00215636,0.00000908,0.00146799,-0.0019
 6788,0.00062395,0.00132204,0.00031362,-0.00016456,-0.00024032,0.000497
 68,0.00011413,-0.00022767,0.02145364,-0.00046193,-0.04171284,0.0015523
 9,0.00464090,0.00043508,0.00052449,-0.00282165,0.00059180,0.00072803,-
 0.00158099,0.00038285,0.00112014,0.00032178,-0.00012437,-0.01069965,-0
 .00422718,0.00205544,0.00103149,0.00107989,0.00034062,0.00140535,0.000
 60594,0.00278895,0.00030310,0.00006107,0.00107743,0.35352061,0.0020536
 1,-0.01187070,-0.00441536,-0.00225269,-0.00209671,0.00103125,-0.000050
 75,-0.00079430,0.00016280,-0.00053642,0.00122522,-0.00031741,-0.000732
 07,0.00049882,0.00057008,0.00006601,0.00008688,0.00009917,0.00405859,0
 .00045295,-0.00390366,-0.01059969,-0.02397971,0.02009761,-0.00143516,0
 .01156212,0.00330262,-0.00031139,-0.00291589,0.00066772,-0.00153376,0.
 00068585,0.00160180,0.00021266,-0.00007433,0.00000261,-0.00014607,0.00
 004761,0.00001092,-0.00081581,-0.00102250,0.00071689,0.00043193,-0.004
 94648,-0.00206733,-0.00007996,-0.00649905,-0.00137695,-0.00022425,-0.0
 0012760,-0.00013143,0.00084555,-0.00065562,-0.00069350,0.00000806,0.00
 006983,-0.00004951,-0.00011776,0.00007117,0.00018433,-0.01186453,-0.02
 548318,0.01192925,0.00936022,-0.00074058,-0.00613361,0.00024164,-0.002
 46511,-0.00019283,-0.00021814,0.00116498,-0.00062767,-0.00039805,0.000
 15973,-0.00000585,-0.00582954,0.00114489,0.00386876,-0.00051878,-0.000
 13210,0.00016775,0.00083686,0.00000262,-0.00019937,-0.00109405,-0.0010
 0614,-0.00134488,0.08954899,0.70090654,-0.01303677,-0.03143513,0.00985
 851,-0.00288586,-0.00381808,0.00280360,0.00041889,-0.00043486,-0.00041
 169,-0.00048564,0.00912714,0.00108331,-0.00146631,0.00072178,0.0012220
 7,-0.00012947,0.00015126,0.00009956,0.00950265,0.00730718,-0.00742779,
 -0.02641866,0.01976364,0.02659093,0.00673304,0.02847985,-0.00481472,0.
 00197786,-0.01333815,-0.00233654,-0.00571959,0.00638440,0.00522527,0.0
 0046156,0.00023844,-0.00022442,-0.00153469,0.00004996,0.00135776,-0.00
 323065,-0.00142523,0.00925903,0.00314208,0.00026236,-0.00299990,0.0036
 2751,-0.00323766,-0.00652900,0.00180466,0.00025606,-0.00214714,0.00192
 683,-0.00071315,-0.00190257,-0.00051073,-0.00001365,0.00019604,-0.0005
 8407,0.00004514,0.00018311,-0.02442120,0.00085839,0.00832686,-0.005706
 36,-0.00370474,0.00241342,-0.00069500,0.00424736,-0.00064324,-0.001403
 91,0.00153039,0.00056359,-0.00097355,-0.00024119,-0.00009448,-0.005946
 94,0.00268577,0.00612219,-0.00033188,-0.00009306,-0.00017654,-0.001640
 65,-0.00086313,-0.00120203,-0.00264307,-0.00201093,-0.00343254,0.35979
 582,-0.10069298,0.29000565,-0.00384766,-0.00356802,0.00583026,-0.00043
 644,-0.00044944,0.00027756,-0.00011509,-0.00042105,0.00020956,0.000560
 26,0.00068816,-0.00048248,-0.00021064,0.00013775,0.00017034,0.00003210
 ,0.00003158,-0.00000305,0.00068251,0.00064218,-0.00316045,-0.00999947,
 -0.00312521,0.01375224,-0.00081355,0.00227460,0.00097151,0.00014248,-0
 .00021447,0.00016766,-0.00049001,0.00041082,-0.00004002,0.00004022,0.0
 0000062,0.00005636,-0.00013060,0.00010248,0.00008816,-0.00094354,0.001
 08313,-0.00124817,0.00054383,-0.00174640,-0.00041330,0.00096628,0.0004
 5339,0.00022485,0.00006700,-0.00015986,0.00018293,0.00032110,-0.000234
 75,0.00011690,0.00007505,0.00007505,0.00001107,-0.00000800,-0.00006700
 ,0.00003205,-0.00966452,0.01232478,0.00881456,-0.00325152,-0.00056834,
 0.00173379,-0.00008675,0.00129481,0.00011383,0.00011720,-0.00035883,0.
 00009798,-0.00007681,-0.00014245,0.00007963,0.00089331,0.00127551,0.00
 005083,-0.00146854,-0.00098859,-0.00001109,-0.00025471,0.00005778,-0.0
 0033251,0.00030434,-0.00046520,-0.00012962,-0.04166900,-0.04957923,-0.
 02316918,0.06121024,0.00629513,0.00749619,-0.00606296,0.00022754,0.000
 01766,0.00000766,0.00023191,0.00083760,-0.00026165,-0.00186820,-0.0010
 3933,0.00193939,0.00015382,-0.00009789,-0.00015566,-0.00013594,-0.0000
 7005,0.00003438,-0.00247448,-0.00515077,0.00237492,0.00180147,0.000611
 50,-0.00369624,0.00071359,-0.00096996,-0.00051357,0.00004871,-0.000349
 48,-0.00017447,-0.00014499,0.00000576,0.00014651,0.00002743,0.00004729
 ,-0.00005916,0.00019989,-0.00018268,-0.00016296,-0.00008372,0.00001493
 ,0.00059511,0.00015868,-0.00006456,-0.00021310,-0.00002283,-0.00056797
 ,-0.00028479,0.00002101,0.00003357,-0.00008162,0.00015001,-0.00003032,
 -0.00015618,-0.00003445,-0.00000883,-0.00000842,-0.00003069,0.00000523
 ,0.00002755,0.00332717,0.00150389,-0.00317177,-0.00145522,-0.00049698,
 0.00095303,-0.00018693,0.00072060,-0.00009747,-0.00006470,-0.00008620,
 -0.00008203,-0.00004400,-0.00006103,0.00000836,0.00012015,0.00061693,0
 .00037491,-0.00034207,0.00009288,-0.00000810,0.00015972,-0.00009328,-0
 .00004948,0.00003463,-0.00001264,0.00011362,-0.05010033,-0.36972219,0.
 03810563,0.04448683,0.37408356,0.00779376,0.00536861,-0.00668219,0.000
 58953,0.00042070,-0.00015882,0.00021891,0.00068874,-0.00015927,-0.0011
 1789,-0.00105304,0.00136464,0.00026409,-0.00017494,-0.00017026,-0.0000
 9592,-0.00006150,0.00001064,-0.00401716,-0.00084323,0.00234463,0.01166
 404,0.00377780,-0.01623945,0.00072348,-0.00259562,-0.00143546,-0.00001
 898,0.00004433,0.00002382,-0.00024121,-0.00045033,-0.00007094,0.000009
 70,-0.00001289,-0.00006160,0.00020297,-0.00015437,-0.00016054,-0.00052
 023,0.00034172,-0.00276490,-0.00028691,-0.00144620,0.00030157,0.000488
 75,0.00178402,0.00110873,0.00000313,-0.00007307,0.00043526,-0.00010320
 ,0.00008769,0.00049803,0.00012097,0.00003991,-0.00001046,0.00009787,-0
 .00009902,-0.00001972,0.01027493,-0.01123328,-0.00837399,0.00243800,0.
 00067121,-0.00205713,0.00010057,-0.00103501,0.00018761,-0.00003904,0.0
 0025151,0.00008196,-0.00000918,0.00011691,0.00001218,-0.00091887,-0.00
 033236,0.00003963,0.00002299,0.00012506,0.00049730,0.00002519,0.000191
 03,0.00022446,-0.00013311,0.00004319,-0.00011911,-0.02222791,0.0323119
 8,-0.03075051,-0.01104626,-0.02902426,0.05560207,-0.00087345,-0.001461
 02,0.00166611,-0.00036638,-0.00009369,-0.00023971,0.00004308,0.0001046
 5,0.00004260,-0.00028327,0.00058086,-0.00022613,-0.00008814,0.00002182
 ,0.00004464,0.00002928,0.00000491,0.00005345,0.00020985,0.00062602,-0.
 00031996,0.00297486,0.00538948,0.00761679,0.00111723,0.00270377,-0.000
 19976,0.00016991,-0.00132689,-0.00076338,0.00015417,0.00015170,0.00032
 990,0.00002272,0.00002854,-0.00000008,-0.00013505,-0.00002081,0.000123
 76,0.00131857,0.00034620,0.00132637,-0.00178130,-0.00065550,-0.0007652
 8,-0.00003196,-0.00106752,-0.00021313,-0.00038472,0.00001291,-0.000056
 09,-0.00010020,0.00002164,-0.00030984,0.00006061,-0.00017323,-0.000011
 64,0.00000826,0.00010700,0.00004611,-0.00785817,-0.00256571,-0.0008346
 9,-0.00003855,0.00016364,0.00001952,-0.00001078,0.00006341,0.00001329,
 -0.00013424,0.00001615,0.00007147,-0.00015085,0.00011098,0.00006513,-0
 .00196147,-0.00006303,0.00078656,0.00006230,0.00004522,0.00002644,0.00
 011473,-0.00000996,0.00035138,-0.00019874,-0.00034213,-0.00025744,-0.1
 9740977,-0.10764471,-0.13057322,0.00288292,0.00232692,0.00053363,0.208
 09609,-0.00082015,-0.00139018,0.00010712,0.00004034,-0.00029229,-0.000
 15162,0.00004688,0.00020397,-0.00003449,-0.00015362,-0.00004555,-0.000
 08199,-0.00004262,0.00002542,0.00005297,0.00002307,-0.00000278,0.00001
 365,0.00121478,-0.00055982,-0.00071583,-0.00009082,-0.00161216,0.00072
 909,0.00053963,0.00243463,-0.00041174,0.00051260,-0.00150667,-0.000895
 99,-0.00082145,0.00101918,0.00166669,0.00006112,0.00003693,0.00001743,
 -0.00003471,0.00003185,0.00000884,0.00212368,-0.00945704,0.00778264,-0
 .00186553,0.00350622,-0.00182967,-0.00083228,0.00007857,-0.00304924,0.
 00079900,0.00089883,-0.00121268,-0.00102144,0.00158818,-0.00102087,-0.
 00053984,-0.00031842,-0.00005843,-0.00005144,0.00018397,0.00005001,0.0
 0179351,0.00034337,0.00073115,0.00015608,0.00034196,0.00011721,-0.0000
 5613,-0.00038362,-0.00003664,0.00023538,0.00002778,0.00003347,0.000578
 06,-0.00003783,-0.00027737,0.00100523,-0.00040328,-0.00018934,0.000026
 89,0.00010976,-0.00000463,-0.00016738,0.00002972,-0.00021691,0.0002374
 6,0.00042749,0.00003332,-0.11070149,-0.12171593,-0.07718245,-0.0163727
 6,-0.00274231,-0.01226024,0.11099637,0.11877342,0.00092254,0.00103647,
 -0.00138238,0.00014261,0.00010118,0.00014013,-0.00006142,-0.00002758,0
 .00001741,-0.00005390,-0.00018341,0.00031233,0.00004919,-0.00001247,0.
 00001059,-0.00003486,0.00000221,-0.00002095,-0.00077200,0.00015146,0.0
 0061674,-0.00084033,-0.00387443,-0.00634768,-0.00033680,-0.00180757,-0
 .00062935,-0.00004661,0.00038936,0.00047845,-0.00033389,0.00087063,-0.
 00089544,-0.00001083,0.00011082,0.00015539,0.00009176,-0.00000872,-0.0
 0004253,0.00097103,-0.00102523,0.00564171,-0.00100962,0.00137820,-0.00
 375650,-0.00015386,-0.00090073,-0.00124354,0.00046170,0.00055235,-0.00
 088881,-0.00058545,0.00070657,-0.00093416,-0.00023121,-0.00014324,0.00
 005644,-0.00007448,0.00023507,0.00008576,0.00816540,0.00435428,0.00184
 755,-0.00019848,0.00021831,0.00008202,-0.00001105,-0.00018417,-0.00001
 021,0.00004600,-0.00011901,-0.00007014,0.00034543,-0.00016213,-0.00004
 218,0.00271085,0.00016810,-0.00167688,-0.00014062,-0.00022350,-0.00010
 812,0.00002085,-0.00005969,-0.00008667,0.00065840,0.00032659,0.0007027
 9,-0.13149922,-0.07419457,-0.13170915,0.00564623,0.00268042,0.00497563
 ,0.12644646,0.07889497,0.13890701,-0.00149049,-0.00168861,0.00103933,-
 0.00007134,-0.00070184,0.00023321,0.00018095,0.00016559,-0.00017020,0.
 00006692,0.00069266,0.00024529,-0.00013455,0.00006221,0.00012717,-0.00
 002757,0.00000052,-0.00001713,0.00023913,0.00040794,-0.00055011,-0.009
 23146,0.00643399,0.00557204,-0.00066795,0.00391204,0.00005526,0.000486
 81,-0.00135856,-0.00030804,-0.00227236,-0.00106666,0.00123530,0.000182
 79,-0.00012426,-0.00009478,-0.00013923,0.00002269,0.00015497,-0.001297
 38,-0.00070722,-0.00241097,0.00048329,-0.00067424,0.00057366,0.0005753
 7,0.00168613,0.00082320,0.00039754,0.00006430,0.00020951,-0.00000801,0
 .00022655,0.00049048,0.00003319,0.00003461,0.00001269,0.00009042,-0.00
 016071,0.00000020,-0.00739311,-0.00513084,0.01711784,0.00082201,-0.001
 73976,0.00003987,0.00003267,-0.00004995,-0.00032953,-0.00042788,0.0010
 6443,-0.00065925,0.00001570,0.00002398,-0.00011297,0.00134099,0.000308
 77,0.00205572,-0.00002747,-0.00005821,-0.00008893,-0.00092912,-0.00003
 942,-0.00112042,0.00012431,0.00035519,-0.00042556,-0.13209070,0.088318
 67,-0.13588346,0.00462801,-0.00349606,0.00520335,-0.00545754,0.0131815
 7,-0.01028379,0.15196610,0.00029552,-0.00086083,0.00009381,0.00020680,
 -0.00023260,0.00001115,0.00006108,0.00018764,-0.00003984,-0.00003349,-
 0.00020741,0.00016923,-0.00002883,-0.00000068,0.00001279,-0.00000722,-
 0.00001056,-0.00002256,0.00005876,-0.00030224,-0.00106188,0.00125428,-
 0.00223639,-0.00127212,0.00049237,0.00161577,-0.00034396,0.00077076,-0
 .00112682,-0.00056305,-0.00260899,0.00028612,0.00147249,0.00008797,-0.
 00003682,-0.00004651,0.00001131,0.00005708,-0.00001438,-0.00242333,-0.
 00207470,-0.00552607,0.00057307,-0.00072627,0.00162828,0.00160122,-0.0
 0046837,0.00287830,0.00096282,0.00035233,0.00073036,-0.00019463,0.0006
 7209,0.00101400,0.00010222,0.00011364,-0.00002650,0.00017503,-0.000330
 58,-0.00005233,0.00188187,0.00126475,-0.00407669,-0.00049891,0.0011581
 9,-0.00081740,-0.00005995,-0.00016305,0.00037216,0.00105778,-0.0004914
 0,0.00025039,0.00018491,-0.00005871,-0.00006476,-0.00020124,-0.0006701
 7,0.00012765,-0.00003433,-0.00012056,0.00010761,-0.00103237,0.00006373
 ,0.00001615,-0.00002576,0.00003145,-0.00034949,0.09261260,-0.14183111,
 0.11898963,0.01312212,-0.00434114,0.01458494,-0.00839798,0.01040665,-0
 .00925055,-0.09996548,0.14008096,0.00210941,0.00185109,-0.00143968,-0.
 00009872,0.00055633,-0.00042316,-0.00013700,-0.00021970,0.00016392,-0.
 00016927,-0.00101767,-0.00050431,0.00014345,-0.00003900,-0.00012996,0.
 00005547,-0.00001017,0.00003585,-0.00039465,-0.00056213,0.00039477,0.0
 1298686,-0.01006426,-0.00344809,0.00021114,-0.00352797,0.00029376,-0.0
 0054714,0.00152839,0.00015931,0.00145142,0.00066266,0.00033121,-0.0001
 3448,0.00000543,0.00000047,0.00021392,-0.00004783,-0.00022332,-0.00049
 779,-0.00119511,-0.00092577,0.00026102,-0.00021625,0.00045127,0.000281
 67,0.00242602,-0.00076286,0.00004832,0.00008547,0.00008537,-0.00009837
 ,0.00009591,0.00012812,0.00001322,-0.00001530,-0.00000006,0.00005806,-
 0.00005229,-0.00000206,0.00715702,0.00362833,-0.01559116,-0.00045490,0
 .00077597,0.00017992,-0.00002011,-0.00011545,0.00028182,0.00105368,-0.
 00117049,0.00003098,0.00004506,0.00000574,-0.00003839,-0.00098338,-0.0
 0044596,0.00031791,0.00006957,0.00002731,-0.00000863,0.00042928,0.0002
 4748,0.00059677,-0.00006227,-0.00018105,0.00017914,-0.13687115,0.11962
 138,-0.16850864,0.00140783,-0.00309761,0.00152622,-0.00479325,0.009391
 56,-0.00418528,0.11726606,-0.11893085,0.19103454\\-0.00000081,-0.00000
 021,-0.00000044,-0.00000075,-0.00000012,-0.00000071,-0.00000101,-0.000
 00012,-0.00000088,-0.00000097,-0.00000009,-0.00000081,-0.00000078,-0.0
 0000019,-0.00000076,-0.00000126,-0.00000019,-0.00000109,-0.00000073,0.
 00000004,-0.00000039,0.00523187,0.00528556,0.00172115,-0.00000040,0.00
 000010,-0.00000049,-0.00000022,-0.00000012,-0.00000021,0.00038319,0.00
 067985,-0.00036815,-0.00000022,-0.00000013,-0.00000029,-0.00000121,-0.
 00000008,-0.00000089,0.00000072,-0.00000018,0.00000040,0.00000080,-0.0
 0000032,0.00000013,0.00000029,0.00000011,0.00000030,0.00000075,-0.0000
 0035,0.00000004,0.00000102,-0.00000003,0.00000064,0.00000092,-0.000000
 56,-0.00000005,0.00000092,0.00000011,0.00000076,0.00314493,0.00512576,
 0.00316185,0.00000065,0.00000018,0.00000077,0.00000073,0.00000041,0.00
 000096,0.00000047,0.00000037,0.00000075,0.00000087,0.00000006,0.000000
 65,-0.00000001,0.00000049,0.00000061,-0.00000026,0.00000044,0.00000034
 ,-0.00000017,0.00000062,0.00000058,0.00000007,0.00000060,0.00000075,-0
 .00875958,-0.01109194,-0.00451538,0.,-0.00000002,-0.00000012,0.0000002
 4,-0.00000018,-0.00000011,-0.00000007,0.00000012,0.00000009\\\@


 I DON'T EXACTLY UNDERSTAND WHAT YOU ARE SAYING,
 BUT YOU ARE ABSOLUTELY RIGHT.
     M.S.GORDON, IN A NDSU FACULTY MEETING
 Job cpu time:       0 days  0 hours 52 minutes  5.8 seconds.
 File lengths (MBytes):  RWF=    373 Int=      0 D2E=      0 Chk=      8 Scr=      1
 Normal termination of Gaussian 09 at Thu Mar 25 03:42:33 2021.
