 Entering Gaussian System, Link 0=g09
 Initial command:
 /opt/software/gaussian/g09.e01/l1.exe "/localscratch/enas93.52313799.0/Gau-22714.inp" -scrdir="/localscratch/enas93.52313799.0/"
 Entering Link 1 = /opt/software/gaussian/g09.e01/l1.exe PID=     22715.
  
 Copyright (c) 1988,1990,1992,1993,1995,1998,2003,2009,2015,
            Gaussian, Inc.  All Rights Reserved.
  
 This is part of the Gaussian(R) 09 program.  It is based on
 the Gaussian(R) 03 system (copyright 2003, Gaussian, Inc.),
 the Gaussian(R) 98 system (copyright 1998, Gaussian, Inc.),
 the Gaussian(R) 94 system (copyright 1995, Gaussian, Inc.),
 the Gaussian 92(TM) system (copyright 1992, Gaussian, Inc.),
 the Gaussian 90(TM) system (copyright 1990, Gaussian, Inc.),
 the Gaussian 88(TM) system (copyright 1988, Gaussian, Inc.),
 the Gaussian 86(TM) system (copyright 1986, Carnegie Mellon
 University), and the Gaussian 82(TM) system (copyright 1983,
 Carnegie Mellon University). Gaussian is a federally registered
 trademark of Gaussian, Inc.
  
 This software contains proprietary and confidential information,
 including trade secrets, belonging to Gaussian, Inc.
  
 This software is provided under written license and may be
 used, copied, transmitted, or stored only in accord with that
 written license.
  
 The following legend is applicable only to US Government
 contracts under FAR:
  
                    RESTRICTED RIGHTS LEGEND
  
 Use, reproduction and disclosure by the US Government is
 subject to restrictions as set forth in subparagraphs (a)
 and (c) of the Commercial Computer Software - Restricted
 Rights clause in FAR 52.227-19.
  
 Gaussian, Inc.
 340 Quinnipiac St., Bldg. 40, Wallingford CT 06492
  
  
 ---------------------------------------------------------------
 Warning -- This program may not be used in any manner that
 competes with the business of Gaussian, Inc. or will provide
 assistance to any competitor of Gaussian, Inc.  The licensee
 of this program is prohibited from giving any competitor of
 Gaussian, Inc. access to this program.  By using this program,
 the user acknowledges that Gaussian, Inc. is engaged in the
 business of creating and licensing software in the field of
 computational chemistry and represents and warrants to the
 licensee that it is not a competitor of Gaussian, Inc. and that
 it will not use this program in any manner prohibited above.
 ---------------------------------------------------------------
  

 Cite this work as:
 Gaussian 09, Revision E.01,
 M. J. Frisch, G. W. Trucks, H. B. Schlegel, G. E. Scuseria, 
 M. A. Robb, J. R. Cheeseman, G. Scalmani, V. Barone, B. Mennucci, 
 G. A. Petersson, H. Nakatsuji, M. Caricato, X. Li, H. P. Hratchian, 
 A. F. Izmaylov, J. Bloino, G. Zheng, J. L. Sonnenberg, M. Hada, 
 M. Ehara, K. Toyota, R. Fukuda, J. Hasegawa, M. Ishida, T. Nakajima, 
 Y. Honda, O. Kitao, H. Nakai, T. Vreven, J. A. Montgomery, Jr., 
 J. E. Peralta, F. Ogliaro, M. Bearpark, J. J. Heyd, E. Brothers, 
 K. N. Kudin, V. N. Staroverov, T. Keith, R. Kobayashi, J. Normand, 
 K. Raghavachari, A. Rendell, J. C. Burant, S. S. Iyengar, J. Tomasi, 
 M. Cossi, N. Rega, J. M. Millam, M. Klene, J. E. Knox, J. B. Cross, 
 V. Bakken, C. Adamo, J. Jaramillo, R. Gomperts, R. E. Stratmann, 
 O. Yazyev, A. J. Austin, R. Cammi, C. Pomelli, J. W. Ochterski, 
 R. L. Martin, K. Morokuma, V. G. Zakrzewski, G. A. Voth, 
 P. Salvador, J. J. Dannenberg, S. Dapprich, A. D. Daniels, 
 O. Farkas, J. B. Foresman, J. V. Ortiz, J. Cioslowski, 
 and D. J. Fox, Gaussian, Inc., Wallingford CT, 2013.
 
 ******************************************
 Gaussian 09:  EM64L-G09RevE.01 30-Nov-2015
                 8-Oct-2020 
 ******************************************
 %nprocshared=4
 Will use up to    4 processors via shared memory.
 %mem=10GB
 --------------------------------
 # opt freq b3lyp/6-31g(d) nosymm
 --------------------------------
 1/14=-1,18=20,19=15,26=3,38=1/1,3;
 2/9=110,12=2,15=1,17=6,18=5,40=1/2;
 3/5=1,6=6,7=1,11=2,16=1,25=1,30=1,71=1,74=-5/1,2,3;
 4//1;
 5/5=2,38=5/2;
 6/7=2,8=2,9=2,10=2,28=1/1;
 7/30=1/1,2,3,16;
 1/14=-1,18=20,19=15,26=3/3(2);
 2/9=110,15=1/2;
 99//99;
 2/9=110,15=1/2;
 3/5=1,6=6,7=1,11=2,16=1,25=1,30=1,71=1,74=-5/1,2,3;
 4/5=5,16=3,69=1/1;
 5/5=2,38=5/2;
 7/30=1/1,2,3,16;
 1/14=-1,18=20,19=15,26=3/3(-5);
 2/9=110,15=1/2;
 6/7=2,8=2,9=2,10=2,19=2,28=1/1;
 99/9=1/99;
 -------------------
 Title Card Required
 -------------------
 Symbolic Z-matrix:
 Charge =  1 Multiplicity = 1
 C                    -0.73842   1.19123   0.54533 
 C                    -3.21554   1.9543   -0.52402 
 C                    -2.67249   2.66426   0.49858 
 N                    -1.47051   2.29689   1.01936 
 H                    -4.17036   2.22582  -0.95605 
 H                    -3.14995   3.53198   0.9404 
 O                     0.34731   0.92596   1.07913 
 N                    -1.27871   0.47639  -0.48243 
 C                    -2.45412   0.83056  -0.99643 
 N                    -2.93552   0.08112  -2.01137 
 H                    -2.39466  -0.70419  -2.3412 
 H                    -3.81551   0.28622  -2.45828 
 H                    -1.0494    2.81214   1.78257 
 S                     2.74031  -2.23436  -0.09592 
 C                     3.79303  -0.74593  -0.052 
 H                     3.99358  -0.46166  -1.08752 
 H                     3.27289   0.05674   0.47675 
 H                     4.7304   -1.01329   0.44088 
 C                     1.14731  -1.53993  -0.65212 
 H                     0.87005  -0.68106  -0.02521 
 H                     1.27343  -1.24613  -1.69652 
 H                     0.40716  -2.34015  -0.58365 
 C                     2.41827  -2.52084   1.67566 
 H                     1.72472  -3.3618    1.74643 
 H                     3.36567  -2.78873   2.14874 
 H                     1.98552  -1.62185   2.12146 
 
 Add virtual bond connecting atoms H20        and O7         Dist= 3.81D+00.

 GradGradGradGradGradGradGradGradGradGradGradGradGradGradGradGradGradGrad
 Berny optimization.
 Initialization pass.
                           ----------------------------
                           !    Initial Parameters    !
                           ! (Angstroms and Degrees)  !
 --------------------------                            --------------------------
 ! Name  Definition              Value          Derivative Info.                !
 --------------------------------------------------------------------------------
 ! R1    R(1,4)                  1.4082         estimate D2E/DX2                !
 ! R2    R(1,7)                  1.2386         estimate D2E/DX2                !
 ! R3    R(1,8)                  1.3635         estimate D2E/DX2                !
 ! R4    R(2,3)                  1.3582         estimate D2E/DX2                !
 ! R5    R(2,5)                  1.0826         estimate D2E/DX2                !
 ! R6    R(2,9)                  1.4373         estimate D2E/DX2                !
 ! R7    R(3,4)                  1.3605         estimate D2E/DX2                !
 ! R8    R(3,6)                  1.0845         estimate D2E/DX2                !
 ! R9    R(4,13)                 1.0126         estimate D2E/DX2                !
 ! R10   R(7,20)                 2.0187         estimate D2E/DX2                !
 ! R11   R(8,9)                  1.3309         estimate D2E/DX2                !
 ! R12   R(9,10)                 1.3504         estimate D2E/DX2                !
 ! R13   R(10,11)                1.009          estimate D2E/DX2                !
 ! R14   R(10,12)                1.0081         estimate D2E/DX2                !
 ! R15   R(14,15)                1.8236         estimate D2E/DX2                !
 ! R16   R(14,19)                1.8246         estimate D2E/DX2                !
 ! R17   R(14,23)                1.8233         estimate D2E/DX2                !
 ! R18   R(15,16)                1.0924         estimate D2E/DX2                !
 ! R19   R(15,17)                1.0929         estimate D2E/DX2                !
 ! R20   R(15,18)                1.0923         estimate D2E/DX2                !
 ! R21   R(19,20)                1.0989         estimate D2E/DX2                !
 ! R22   R(19,21)                1.0922         estimate D2E/DX2                !
 ! R23   R(19,22)                1.0922         estimate D2E/DX2                !
 ! R24   R(23,24)                1.0924         estimate D2E/DX2                !
 ! R25   R(23,25)                1.0923         estimate D2E/DX2                !
 ! R26   R(23,26)                1.0928         estimate D2E/DX2                !
 ! A1    A(4,1,7)              118.6059         estimate D2E/DX2                !
 ! A2    A(4,1,8)              117.3451         estimate D2E/DX2                !
 ! A3    A(7,1,8)              124.049          estimate D2E/DX2                !
 ! A4    A(3,2,5)              121.4666         estimate D2E/DX2                !
 ! A5    A(3,2,9)              116.3821         estimate D2E/DX2                !
 ! A6    A(5,2,9)              122.1513         estimate D2E/DX2                !
 ! A7    A(2,3,4)              120.0205         estimate D2E/DX2                !
 ! A8    A(2,3,6)              123.2948         estimate D2E/DX2                !
 ! A9    A(4,3,6)              116.6847         estimate D2E/DX2                !
 ! A10   A(1,4,3)              122.8505         estimate D2E/DX2                !
 ! A11   A(1,4,13)             115.9154         estimate D2E/DX2                !
 ! A12   A(3,4,13)             121.2339         estimate D2E/DX2                !
 ! A13   A(1,7,20)              99.3066         estimate D2E/DX2                !
 ! A14   A(1,8,9)              120.1026         estimate D2E/DX2                !
 ! A15   A(2,9,8)              123.2991         estimate D2E/DX2                !
 ! A16   A(2,9,10)             119.4792         estimate D2E/DX2                !
 ! A17   A(8,9,10)             117.2217         estimate D2E/DX2                !
 ! A18   A(9,10,11)            119.1145         estimate D2E/DX2                !
 ! A19   A(9,10,12)            122.1067         estimate D2E/DX2                !
 ! A20   A(11,10,12)           118.7758         estimate D2E/DX2                !
 ! A21   A(15,14,19)           101.5777         estimate D2E/DX2                !
 ! A22   A(15,14,23)           101.9351         estimate D2E/DX2                !
 ! A23   A(19,14,23)           101.6414         estimate D2E/DX2                !
 ! A24   A(14,15,16)           107.1901         estimate D2E/DX2                !
 ! A25   A(14,15,17)           109.6557         estimate D2E/DX2                !
 ! A26   A(14,15,18)           107.8478         estimate D2E/DX2                !
 ! A27   A(16,15,17)           110.7852         estimate D2E/DX2                !
 ! A28   A(16,15,18)           109.5052         estimate D2E/DX2                !
 ! A29   A(17,15,18)           111.7092         estimate D2E/DX2                !
 ! A30   A(14,19,20)           110.111          estimate D2E/DX2                !
 ! A31   A(14,19,21)           107.0403         estimate D2E/DX2                !
 ! A32   A(14,19,22)           107.0794         estimate D2E/DX2                !
 ! A33   A(20,19,21)           111.3709         estimate D2E/DX2                !
 ! A34   A(20,19,22)           111.4623         estimate D2E/DX2                !
 ! A35   A(21,19,22)           109.5898         estimate D2E/DX2                !
 ! A36   A(14,23,24)           107.221          estimate D2E/DX2                !
 ! A37   A(14,23,25)           107.8281         estimate D2E/DX2                !
 ! A38   A(14,23,26)           109.6984         estimate D2E/DX2                !
 ! A39   A(24,23,25)           109.5008         estimate D2E/DX2                !
 ! A40   A(24,23,26)           110.8222         estimate D2E/DX2                !
 ! A41   A(25,23,26)           111.6259         estimate D2E/DX2                !
 ! A42   L(7,20,19,10,-1)      178.9051         estimate D2E/DX2                !
 ! A43   L(7,20,19,10,-2)      178.7939         estimate D2E/DX2                !
 ! D1    D(7,1,4,3)           -179.8731         estimate D2E/DX2                !
 ! D2    D(7,1,4,13)             0.0024         estimate D2E/DX2                !
 ! D3    D(8,1,4,3)              0.13           estimate D2E/DX2                !
 ! D4    D(8,1,4,13)          -179.9945         estimate D2E/DX2                !
 ! D5    D(4,1,7,20)          -179.429          estimate D2E/DX2                !
 ! D6    D(8,1,7,20)             0.5677         estimate D2E/DX2                !
 ! D7    D(4,1,8,9)             -0.1209         estimate D2E/DX2                !
 ! D8    D(7,1,8,9)            179.8823         estimate D2E/DX2                !
 ! D9    D(5,2,3,4)           -179.9967         estimate D2E/DX2                !
 ! D10   D(5,2,3,6)              0.0003         estimate D2E/DX2                !
 ! D11   D(9,2,3,4)             -0.0424         estimate D2E/DX2                !
 ! D12   D(9,2,3,6)            179.9546         estimate D2E/DX2                !
 ! D13   D(3,2,9,8)              0.0494         estimate D2E/DX2                !
 ! D14   D(3,2,9,10)          -179.9862         estimate D2E/DX2                !
 ! D15   D(5,2,9,8)           -179.9966         estimate D2E/DX2                !
 ! D16   D(5,2,9,10)            -0.0322         estimate D2E/DX2                !
 ! D17   D(2,3,4,1)             -0.0461         estimate D2E/DX2                !
 ! D18   D(2,3,4,13)          -179.9151         estimate D2E/DX2                !
 ! D19   D(6,3,4,1)            179.9567         estimate D2E/DX2                !
 ! D20   D(6,3,4,13)             0.0877         estimate D2E/DX2                !
 ! D21   D(1,7,19,14)         -178.7268         estimate D2E/DX2                !
 ! D22   D(1,7,19,21)           62.8659         estimate D2E/DX2                !
 ! D23   D(1,7,19,22)          -59.359          estimate D2E/DX2                !
 ! D24   D(1,8,9,2)              0.0359         estimate D2E/DX2                !
 ! D25   D(1,8,9,10)          -179.9292         estimate D2E/DX2                !
 ! D26   D(2,9,10,11)          179.7489         estimate D2E/DX2                !
 ! D27   D(2,9,10,12)            0.3899         estimate D2E/DX2                !
 ! D28   D(8,9,10,11)           -0.2846         estimate D2E/DX2                !
 ! D29   D(8,9,10,12)         -179.6436         estimate D2E/DX2                !
 ! D30   D(19,14,15,16)        -72.1394         estimate D2E/DX2                !
 ! D31   D(19,14,15,17)         48.188          estimate D2E/DX2                !
 ! D32   D(19,14,15,18)        170.0347         estimate D2E/DX2                !
 ! D33   D(23,14,15,16)       -176.8437         estimate D2E/DX2                !
 ! D34   D(23,14,15,17)        -56.5163         estimate D2E/DX2                !
 ! D35   D(23,14,15,18)         65.3304         estimate D2E/DX2                !
 ! D36   D(15,14,19,20)        -51.3122         estimate D2E/DX2                !
 ! D37   D(15,14,19,21)         69.8936         estimate D2E/DX2                !
 ! D38   D(15,14,19,22)       -172.6529         estimate D2E/DX2                !
 ! D39   D(23,14,19,20)         53.6238         estimate D2E/DX2                !
 ! D40   D(23,14,19,21)        174.8296         estimate D2E/DX2                !
 ! D41   D(23,14,19,22)        -67.7169         estimate D2E/DX2                !
 ! D42   D(15,14,23,24)        175.8657         estimate D2E/DX2                !
 ! D43   D(15,14,23,25)        -66.3075         estimate D2E/DX2                !
 ! D44   D(15,14,23,26)         55.451          estimate D2E/DX2                !
 ! D45   D(19,14,23,24)         71.2114         estimate D2E/DX2                !
 ! D46   D(19,14,23,25)       -170.9618         estimate D2E/DX2                !
 ! D47   D(19,14,23,26)        -49.2033         estimate D2E/DX2                !
 --------------------------------------------------------------------------------
 Trust Radius=3.00D-01 FncErr=1.00D-07 GrdErr=1.00D-06
 Number of steps in this run=    126 maximum allowed number of steps=    156.
 GradGradGradGradGradGradGradGradGradGradGradGradGradGradGradGradGradGrad

                          Input orientation:                          
 ---------------------------------------------------------------------
 Center     Atomic      Atomic             Coordinates (Angstroms)
 Number     Number       Type             X           Y           Z
 ---------------------------------------------------------------------
      1          6           0       -0.738421    1.191232    0.545332
      2          6           0       -3.215542    1.954299   -0.524018
      3          6           0       -2.672488    2.664259    0.498582
      4          7           0       -1.470505    2.296885    1.019364
      5          1           0       -4.170360    2.225818   -0.956048
      6          1           0       -3.149950    3.531980    0.940399
      7          8           0        0.347307    0.925962    1.079128
      8          7           0       -1.278711    0.476385   -0.482432
      9          6           0       -2.454122    0.830557   -0.996434
     10          7           0       -2.935517    0.081123   -2.011372
     11          1           0       -2.394658   -0.704193   -2.341197
     12          1           0       -3.815513    0.286221   -2.458278
     13          1           0       -1.049401    2.812144    1.782573
     14         16           0        2.740311   -2.234364   -0.095917
     15          6           0        3.793033   -0.745931   -0.051995
     16          1           0        3.993578   -0.461657   -1.087521
     17          1           0        3.272892    0.056741    0.476753
     18          1           0        4.730399   -1.013286    0.440878
     19          6           0        1.147313   -1.539932   -0.652124
     20          1           0        0.870049   -0.681056   -0.025212
     21          1           0        1.273433   -1.246133   -1.696523
     22          1           0        0.407157   -2.340145   -0.583646
     23          6           0        2.418271   -2.520840    1.675658
     24          1           0        1.724715   -3.361800    1.746428
     25          1           0        3.365669   -2.788729    2.148736
     26          1           0        1.985521   -1.621848    2.121457
 ---------------------------------------------------------------------
                    Distance matrix (angstroms):
                    1          2          3          4          5
     1  C    0.000000
     2  C    2.803910   0.000000
     3  C    2.431586   1.358183   0.000000
     4  N    1.408234   2.354686   1.360493   0.000000
     5  H    3.886221   1.082613   2.133495   3.346120   0.000000
     6  H    3.383881   2.153578   1.084487   2.086200   2.518692
     7  O    1.238593   4.039981   3.532403   2.277596   5.122585
     8  N    1.363532   2.436652   2.773409   2.367783   3.412691
     9  C    2.334686   1.437266   2.375967   2.679750   2.212206
    10  N    3.549128   2.408199   3.611322   4.030040   2.690402
    11  H    3.829857   3.323187   4.414522   4.599337   3.695500
    12  H    4.394225   2.623702   3.962902   4.651433   2.478840
    13  H    2.062724   3.278479   2.074829   1.012575   4.193353
    14  S    4.924173   7.293857   7.324502   6.285463   8.269850
    15  C    4.964220   7.525568   7.330450   6.173441   8.547762
    16  H    5.271628   7.624027   7.531501   6.473386   8.595911
    17  H    4.169221   6.833889   6.492085   5.273755   7.884150
    18  H    5.897356   8.536719   8.266221   7.052878   9.574273
    19  C    3.528335   5.591115   5.795708   4.936396   6.523104
    20  H    2.533408   4.887326   4.900516   3.929054   5.892546
    21  H    3.874819   5.636349   5.973269   5.240059   6.499048
    22  H    3.880408   5.618697   5.974905   5.253314   6.476138
    23  C    5.002182   7.523649   7.361154   6.226056   8.536199
    24  H    5.314111   7.604076   7.563458   6.539019   8.560185
    25  H    5.937554   8.541210   8.301652   7.108272   9.569592
    26  H    4.221072   6.843860   6.534637   5.339962   7.884823
                    6          7          8          9         10
     6  H    0.000000
     7  O    4.363643   0.000000
     8  N    3.855210   2.298809   0.000000
     9  C    3.396054   3.487845   1.330874   0.000000
    10  N    4.546135   4.587143   2.288863   1.350367   0.000000
    11  H    5.411515   4.677008   2.468625   2.041416   1.008977
    12  H    4.746465   5.500144   3.221101   2.070429   1.008059
    13  H    2.374811   2.450165   3.261687   3.690909   5.040826
    14  S    8.307819   4.134593   4.863136   6.098099   6.422264
    15  C    8.215253   3.993456   5.234684   6.511853   7.056668
    16  H    8.431583   4.462639   5.389164   6.576545   7.011453
    17  H    7.317455   3.110860   4.670463   5.963871   6.688475
    18  H    9.110920   4.835240   6.259475   7.555327   8.122655
    19  C    6.835707   3.117351   3.159101   4.325286   4.598356
    20  H    5.902751   2.018745   2.483121   3.778672   4.359826
    21  H    7.024958   3.644166   3.309762   4.324053   4.424477
    22  H    7.032608   3.665495   3.284088   4.290765   4.367426
    23  C    8.257259   4.065118   5.225743   6.489388   7.001960
    24  H    8.481524   4.552740   5.359109   6.523943   6.905979
    25  H    9.157769   4.904437   6.257338   7.540643   8.077592
    26  H    7.370882   3.203362   4.673118   5.953651   6.648082
                   11         12         13         14         15
    11  H    0.000000
    12  H    1.735931   0.000000
    13  H    5.583889   5.658311   0.000000
    14  S    5.809528   7.410326   6.584670   0.000000
    15  C    6.597705   8.046459   6.282890   1.823619   0.000000
    16  H    6.514606   7.963680   6.662346   2.386723   1.092403
    17  H    6.375028   7.675451   5.289577   2.420900   1.092888
    18  H    7.655189   9.117370   7.059756   2.395753   1.092272
    19  C    4.012105   5.588083   5.449208   1.824622   2.826734
    20  H    4.002828   5.367488   4.376622   2.432210   2.923827
    21  H    3.763535   5.368962   5.828317   2.385429   3.050092
    22  H    3.689918   5.314413   5.853771   2.385933   3.779990
    23  C    6.526838   7.989310   6.362146   1.823254   2.832853
    24  H    6.382851   7.853772   6.768649   2.386793   3.788804
    25  H    7.595140   9.069138   7.141197   2.395174   3.032966
    26  H    6.320074   7.633262   5.383854   2.421081   2.959430
                   16         17         18         19         20
    16  H    0.000000
    17  H    1.798632   0.000000
    18  H    1.784153   1.808472   0.000000
    19  C    3.074650   2.888220   3.782924   0.000000
    20  H    3.306519   2.563195   3.902553   1.098891   0.000000
    21  H    2.895768   3.227762   4.071034   1.092242   1.809782
    22  H    4.079831   3.883548   4.636877   1.092182   1.810716
    23  C    3.789061   2.968446   3.023795   2.827735   2.945294
    24  H    4.646486   3.961736   4.031639   3.066863   3.324989
    25  H    4.035207   3.301641   2.816286   3.784893   3.923832
    26  H    3.959277   2.679559   3.275523   2.898630   2.595680
                   21         22         23         24         25
    21  H    0.000000
    22  H    1.784879   0.000000
    23  C    3.782478   3.030129   0.000000
    24  H    4.066155   2.865132   1.092356   0.000000
    25  H    4.641451   4.052152   1.092305   1.784094   0.000000
    26  H    3.901949   3.213217   1.092793   1.798916   1.807530
                   26
    26  H    0.000000
 Symmetry turned off by external request.
 Stoichiometry    C7H14N3OS(1+)
 Framework group  C1[X(C7H14N3OS)]
 Deg. of freedom    72
 Full point group                 C1      NOp   1
 Rotational constants (GHZ):      1.5335925      0.3190853      0.2843802
 Standard basis: 6-31G(d) (6D, 7F)
   212 basis functions,   416 primitive gaussians,   212 cartesian basis functions
    50 alpha electrons       50 beta electrons
       nuclear repulsion energy       788.3902167143 Hartrees.
 NAtoms=   26 NActive=   26 NUniq=   26 SFac= 1.00D+00 NAtFMM=   60 NAOKFM=F Big=F
 Integral buffers will be    131072 words long.
 Raffenetti 2 integral format.
 Two-electron integral symmetry is turned off.
 One-electron integrals computed using PRISM.
 NBasis=   212 RedAO= T EigKep=  1.20D-03  NBF=   212
 NBsUse=   212 1.00D-06 EigRej= -1.00D+00 NBFU=   212
 ExpMin= 1.17D-01 ExpMax= 2.19D+04 ExpMxC= 3.30D+03 IAcc=1 IRadAn=         1 AccDes= 0.00D+00
 Harris functional with IExCor=  402 and IRadAn=       1 diagonalized for initial guess.
 HarFok:  IExCor=  402 AccDes= 0.00D+00 IRadAn=         1 IDoV= 1 UseB2=F ITyADJ=14
 ICtDFT=  3500011 ScaDFX=  1.000000  1.000000  1.000000  1.000000
 FoFCou: FMM=F IPFlag=           0 FMFlag=      100000 FMFlg1=           0
         NFxFlg=           0 DoJE=T BraDBF=F KetDBF=T FulRan=T
         wScrn=  0.000000 ICntrl=     500 IOpCl=  0 I1Cent=   200000004 NGrid=           0
         NMat0=    1 NMatS0=      1 NMatT0=    0 NMatD0=    1 NMtDS0=    0 NMtDT0=    0
 Symmetry not used in FoFCou.
 Keep R1 ints in memory in canonical form, NReq=259882001.
 Requested convergence on RMS density matrix=1.00D-08 within 128 cycles.
 Requested convergence on MAX density matrix=1.00D-06.
 Requested convergence on             energy=1.00D-06.
 No special actions if energy rises.
 Integral accuracy reduced to 1.0D-05 until final iterations.
 Initial convergence to 1.0D-05 achieved.  Increase integral accuracy.
 SCF Done:  E(RB3LYP) =  -912.637221493     A.U. after   15 cycles
            NFock= 15  Conv=0.61D-08     -V/T= 2.0069

 **********************************************************************

            Population analysis using the SCF density.

 **********************************************************************

 Alpha  occ. eigenvalues --  -89.12319 -19.21311 -14.49599 -14.47026 -14.42141
 Alpha  occ. eigenvalues --  -10.41432 -10.39079 -10.37900 -10.37848 -10.36235
 Alpha  occ. eigenvalues --  -10.35814 -10.30259  -8.18176  -6.14459  -6.14405
 Alpha  occ. eigenvalues --   -6.13839  -1.14786  -1.07705  -1.05185  -1.02530
 Alpha  occ. eigenvalues --   -0.97889  -0.88717  -0.88153  -0.87068  -0.77336
 Alpha  occ. eigenvalues --   -0.76719  -0.75768  -0.67354  -0.66816  -0.63541
 Alpha  occ. eigenvalues --   -0.62655  -0.62045  -0.61891  -0.60230  -0.58247
 Alpha  occ. eigenvalues --   -0.56979  -0.56184  -0.55681  -0.54925  -0.53838
 Alpha  occ. eigenvalues --   -0.53621  -0.53504  -0.51683  -0.48419  -0.47241
 Alpha  occ. eigenvalues --   -0.45000  -0.38190  -0.36655  -0.35684  -0.33813
 Alpha virt. eigenvalues --   -0.13823  -0.13383  -0.13324  -0.08722  -0.08627
 Alpha virt. eigenvalues --   -0.05952  -0.02994  -0.02419  -0.01931  -0.01713
 Alpha virt. eigenvalues --   -0.00040   0.00680   0.00838   0.02256   0.03295
 Alpha virt. eigenvalues --    0.03765   0.04266   0.05038   0.06816   0.10281
 Alpha virt. eigenvalues --    0.12027   0.13742   0.19524   0.19958   0.20364
 Alpha virt. eigenvalues --    0.21764   0.22529   0.24020   0.25921   0.27930
 Alpha virt. eigenvalues --    0.28284   0.29104   0.30946   0.38285   0.39532
 Alpha virt. eigenvalues --    0.40657   0.41403   0.42610   0.43185   0.45751
 Alpha virt. eigenvalues --    0.46913   0.48322   0.48754   0.49323   0.51427
 Alpha virt. eigenvalues --    0.53075   0.53955   0.54222   0.54424   0.56692
 Alpha virt. eigenvalues --    0.57218   0.61237   0.61789   0.63487   0.64105
 Alpha virt. eigenvalues --    0.64464   0.65222   0.67218   0.68271   0.70607
 Alpha virt. eigenvalues --    0.71103   0.71670   0.72445   0.73342   0.75235
 Alpha virt. eigenvalues --    0.75808   0.76171   0.76935   0.77165   0.77485
 Alpha virt. eigenvalues --    0.77937   0.79671   0.81091   0.83197   0.84799
 Alpha virt. eigenvalues --    0.85231   0.87572   0.90421   0.93341   0.95033
 Alpha virt. eigenvalues --    0.96337   0.97441   1.02788   1.11069   1.12157
 Alpha virt. eigenvalues --    1.14187   1.17145   1.17423   1.21735   1.22242
 Alpha virt. eigenvalues --    1.23343   1.28593   1.29246   1.31965   1.32854
 Alpha virt. eigenvalues --    1.35036   1.37162   1.38700   1.47584   1.49984
 Alpha virt. eigenvalues --    1.50665   1.52105   1.54174   1.57875   1.58497
 Alpha virt. eigenvalues --    1.58937   1.63914   1.66037   1.66355   1.71553
 Alpha virt. eigenvalues --    1.72491   1.75924   1.78954   1.83485   1.85151
 Alpha virt. eigenvalues --    1.85295   1.90667   1.92107   1.94242   2.00431
 Alpha virt. eigenvalues --    2.02481   2.03671   2.04275   2.05838   2.07017
 Alpha virt. eigenvalues --    2.07391   2.08400   2.08484   2.09366   2.09766
 Alpha virt. eigenvalues --    2.10953   2.16065   2.19080   2.23335   2.29490
 Alpha virt. eigenvalues --    2.31759   2.32785   2.43572   2.49104   2.52705
 Alpha virt. eigenvalues --    2.54409   2.58681   2.59773   2.62510   2.68535
 Alpha virt. eigenvalues --    2.74343   2.89072   2.93332   3.13794   3.31951
 Alpha virt. eigenvalues --    3.70263   3.71850   3.85837   3.90795   4.01961
 Alpha virt. eigenvalues --    4.04197   4.05910   4.11372   4.14510   4.18182
 Alpha virt. eigenvalues --    4.42820   4.49003
          Condensed to atoms (all electrons):
               1          2          3          4          5          6
     1  C    4.159389  -0.024492  -0.033128   0.275159   0.000694   0.002527
     2  C   -0.024492   5.043594   0.596744  -0.027098   0.356021  -0.031263
     3  C   -0.033128   0.596744   4.713639   0.327615  -0.035918   0.368334
     4  N    0.275159  -0.027098   0.327615   7.004664   0.003447  -0.043354
     5  H    0.000694   0.356021  -0.035918   0.003447   0.533143  -0.003434
     6  H    0.002527  -0.031263   0.368334  -0.043354  -0.003434   0.507364
     7  O    0.536081   0.000602   0.002226  -0.092661   0.000006  -0.000096
     8  N    0.378145  -0.057604  -0.020740  -0.099329   0.004013  -0.000246
     9  C   -0.025476   0.434792  -0.022937  -0.025517  -0.025699   0.003155
    10  N    0.001324  -0.085473   0.003786   0.000207  -0.004625  -0.000125
    11  H   -0.000136   0.007140  -0.000099   0.000039  -0.000235   0.000004
    12  H   -0.000092  -0.001775   0.000126   0.000019   0.002886  -0.000001
    13  H   -0.007851   0.003424  -0.025498   0.292137  -0.000095  -0.005344
    14  S    0.000196   0.000001  -0.000000   0.000011  -0.000000   0.000000
    15  C    0.000012   0.000000   0.000000  -0.000000   0.000000  -0.000000
    16  H    0.000001  -0.000000  -0.000000   0.000000   0.000000   0.000000
    17  H   -0.000010  -0.000000  -0.000000   0.000001   0.000000   0.000000
    18  H   -0.000000  -0.000000   0.000000   0.000000  -0.000000   0.000000
    19  C   -0.004154   0.000017   0.000009  -0.000131  -0.000000  -0.000000
    20  H    0.003666   0.000001  -0.000052   0.000954  -0.000000   0.000001
    21  H    0.000151   0.000001  -0.000000   0.000004  -0.000000   0.000000
    22  H    0.000167   0.000001  -0.000000   0.000004  -0.000000   0.000000
    23  C    0.000007   0.000000   0.000000  -0.000000   0.000000  -0.000000
    24  H    0.000000  -0.000000  -0.000000   0.000000   0.000000   0.000000
    25  H   -0.000000  -0.000000   0.000000   0.000000  -0.000000   0.000000
    26  H    0.000012  -0.000000  -0.000000   0.000000   0.000000   0.000000
               7          8          9         10         11         12
     1  C    0.536081   0.378145  -0.025476   0.001324  -0.000136  -0.000092
     2  C    0.000602  -0.057604   0.434792  -0.085473   0.007140  -0.001775
     3  C    0.002226  -0.020740  -0.022937   0.003786  -0.000099   0.000126
     4  N   -0.092661  -0.099329  -0.025517   0.000207   0.000039   0.000019
     5  H    0.000006   0.004013  -0.025699  -0.004625  -0.000235   0.002886
     6  H   -0.000096  -0.000246   0.003155  -0.000125   0.000004  -0.000001
     7  O    8.170449  -0.089224   0.000061  -0.000055  -0.000021   0.000001
     8  N   -0.089224   7.090980   0.474080  -0.091327   0.007661   0.003739
     9  C    0.000061   0.474080   4.322579   0.331100  -0.011486  -0.018145
    10  N   -0.000055  -0.091327   0.331100   6.995868   0.296987   0.317932
    11  H   -0.000021   0.007661  -0.011486   0.296987   0.368802  -0.021322
    12  H    0.000001   0.003739  -0.018145   0.317932  -0.021322   0.353958
    13  H    0.008598   0.005765   0.000638   0.000020  -0.000001  -0.000001
    14  S    0.001322   0.001088   0.000008  -0.000003   0.000013   0.000000
    15  C   -0.000897  -0.000013  -0.000000  -0.000000  -0.000000   0.000000
    16  H    0.000006  -0.000001  -0.000000   0.000000  -0.000000   0.000000
    17  H    0.003672  -0.000021  -0.000000   0.000000  -0.000000  -0.000000
    18  H    0.000004   0.000000   0.000000   0.000000  -0.000000   0.000000
    19  C   -0.028977   0.007282   0.000056  -0.000084   0.000234  -0.000000
    20  H    0.065400  -0.009054   0.000413  -0.000054   0.000005   0.000001
    21  H    0.000148   0.000554   0.000018  -0.000011   0.000065   0.000000
    22  H    0.000167   0.000628   0.000019  -0.000013   0.000090   0.000000
    23  C   -0.000686  -0.000012  -0.000000  -0.000000  -0.000000   0.000000
    24  H    0.000005  -0.000001  -0.000000   0.000000  -0.000000   0.000000
    25  H    0.000002   0.000000   0.000000   0.000000  -0.000000   0.000000
    26  H    0.002784  -0.000024  -0.000000   0.000000  -0.000000  -0.000000
              13         14         15         16         17         18
     1  C   -0.007851   0.000196   0.000012   0.000001  -0.000010  -0.000000
     2  C    0.003424   0.000001   0.000000  -0.000000  -0.000000  -0.000000
     3  C   -0.025498  -0.000000   0.000000  -0.000000  -0.000000   0.000000
     4  N    0.292137   0.000011  -0.000000   0.000000   0.000001   0.000000
     5  H   -0.000095  -0.000000   0.000000   0.000000   0.000000  -0.000000
     6  H   -0.005344   0.000000  -0.000000   0.000000   0.000000   0.000000
     7  O    0.008598   0.001322  -0.000897   0.000006   0.003672   0.000004
     8  N    0.005765   0.001088  -0.000013  -0.000001  -0.000021   0.000000
     9  C    0.000638   0.000008  -0.000000  -0.000000  -0.000000   0.000000
    10  N    0.000020  -0.000003  -0.000000   0.000000   0.000000   0.000000
    11  H   -0.000001   0.000013  -0.000000  -0.000000  -0.000000  -0.000000
    12  H   -0.000001   0.000000   0.000000   0.000000  -0.000000   0.000000
    13  H    0.366651  -0.000001  -0.000000   0.000000   0.000001  -0.000000
    14  S   -0.000001  14.984846   0.255279  -0.029325  -0.029826  -0.028580
    15  C   -0.000000   0.255279   5.336490   0.367957   0.359117   0.365606
    16  H    0.000000  -0.029325   0.367957   0.449610  -0.017540  -0.016609
    17  H    0.000001  -0.029826   0.359117  -0.017540   0.442165  -0.017310
    18  H   -0.000000  -0.028580   0.365606  -0.016609  -0.017310   0.454729
    19  C    0.000009   0.229656  -0.032678  -0.000485  -0.004188   0.002081
    20  H   -0.000058  -0.025128  -0.003985  -0.000223   0.004670   0.000049
    21  H   -0.000000  -0.030900  -0.000536   0.001400  -0.000305  -0.000011
    22  H   -0.000000  -0.030805   0.002276  -0.000012   0.000067  -0.000055
    23  C    0.000000   0.255318  -0.031279   0.002200  -0.003591  -0.000983
    24  H    0.000000  -0.029216   0.002198  -0.000051  -0.000001  -0.000001
    25  H   -0.000000  -0.028559  -0.000942  -0.000004  -0.000248   0.001765
    26  H    0.000000  -0.029988  -0.003628   0.000001   0.003581  -0.000261
              19         20         21         22         23         24
     1  C   -0.004154   0.003666   0.000151   0.000167   0.000007   0.000000
     2  C    0.000017   0.000001   0.000001   0.000001   0.000000  -0.000000
     3  C    0.000009  -0.000052  -0.000000  -0.000000   0.000000  -0.000000
     4  N   -0.000131   0.000954   0.000004   0.000004  -0.000000   0.000000
     5  H   -0.000000  -0.000000  -0.000000  -0.000000   0.000000   0.000000
     6  H   -0.000000   0.000001   0.000000   0.000000  -0.000000   0.000000
     7  O   -0.028977   0.065400   0.000148   0.000167  -0.000686   0.000005
     8  N    0.007282  -0.009054   0.000554   0.000628  -0.000012  -0.000001
     9  C    0.000056   0.000413   0.000018   0.000019  -0.000000  -0.000000
    10  N   -0.000084  -0.000054  -0.000011  -0.000013  -0.000000   0.000000
    11  H    0.000234   0.000005   0.000065   0.000090  -0.000000  -0.000000
    12  H   -0.000000   0.000001   0.000000   0.000000   0.000000   0.000000
    13  H    0.000009  -0.000058  -0.000000  -0.000000   0.000000   0.000000
    14  S    0.229656  -0.025128  -0.030900  -0.030805   0.255318  -0.029216
    15  C   -0.032678  -0.003985  -0.000536   0.002276  -0.031279   0.002198
    16  H   -0.000485  -0.000223   0.001400  -0.000012   0.002200  -0.000051
    17  H   -0.004188   0.004670  -0.000305   0.000067  -0.003591  -0.000001
    18  H    0.002081   0.000049  -0.000011  -0.000055  -0.000983  -0.000001
    19  C    5.484699   0.289916   0.363629   0.362995  -0.032757  -0.000591
    20  H    0.289916   0.392308  -0.011584  -0.011282  -0.003776  -0.000211
    21  H    0.363629  -0.011584   0.467721  -0.017806   0.002277  -0.000009
    22  H    0.362995  -0.011282  -0.017806   0.468998  -0.000692   0.001524
    23  C   -0.032757  -0.003776   0.002277  -0.000692   5.334360   0.367929
    24  H   -0.000591  -0.000211  -0.000009   0.001524   0.367929   0.449812
    25  H    0.002078   0.000036  -0.000055  -0.000005   0.365907  -0.016565
    26  H   -0.003948   0.004447   0.000055  -0.000318   0.359681  -0.017662
              25         26
     1  C   -0.000000   0.000012
     2  C   -0.000000  -0.000000
     3  C    0.000000  -0.000000
     4  N    0.000000   0.000000
     5  H   -0.000000   0.000000
     6  H    0.000000   0.000000
     7  O    0.000002   0.002784
     8  N    0.000000  -0.000024
     9  C    0.000000  -0.000000
    10  N    0.000000   0.000000
    11  H   -0.000000  -0.000000
    12  H    0.000000  -0.000000
    13  H   -0.000000   0.000000
    14  S   -0.028559  -0.029988
    15  C   -0.000942  -0.003628
    16  H   -0.000004   0.000001
    17  H   -0.000248   0.003581
    18  H    0.001765  -0.000261
    19  C    0.002078  -0.003948
    20  H    0.000036   0.004447
    21  H   -0.000055   0.000055
    22  H   -0.000005  -0.000318
    23  C    0.365907   0.359681
    24  H   -0.016565  -0.017662
    25  H    0.454035  -0.017591
    26  H   -0.017591   0.445451
 Mulliken charges:
               1
     1  C    0.737809
     2  C   -0.214634
     3  C    0.125893
     4  N   -0.616169
     5  H    0.169796
     6  H    0.202479
     7  O   -0.578916
     8  N   -0.606339
     9  C    0.562343
    10  N   -0.765453
    11  H    0.352261
    12  H    0.362673
    13  H    0.361607
    14  S    0.534595
    15  C   -0.614978
    16  H    0.243074
    17  H    0.259768
    18  H    0.239578
    19  C   -0.634667
    20  H    0.303540
    21  H    0.225196
    22  H    0.224053
    23  C   -0.613902
    24  H    0.242840
    25  H    0.240146
    26  H    0.257408
 Sum of Mulliken charges =   1.00000
 Mulliken charges with hydrogens summed into heavy atoms:
               1
     1  C    0.737809
     2  C   -0.044838
     3  C    0.328372
     4  N   -0.254563
     7  O   -0.578916
     8  N   -0.606339
     9  C    0.562343
    10  N   -0.050518
    14  S    0.534595
    15  C    0.127442
    19  C    0.118122
    23  C    0.126491
 Electronic spatial extent (au):  <R**2>=           3761.5140
 Charge=              1.0000 electrons
 Dipole moment (field-independent basis, Debye):
    X=              3.0309    Y=             -3.1045    Z=             -0.5618  Tot=              4.3749
 Quadrupole moment (field-independent basis, Debye-Ang):
   XX=            -21.0914   YY=            -47.2493   ZZ=            -62.2293
   XY=            -27.6504   XZ=             11.1541   YZ=              1.3323
 Traceless Quadrupole moment (field-independent basis, Debye-Ang):
   XX=             22.4319   YY=             -3.7260   ZZ=            -18.7059
   XY=            -27.6504   XZ=             11.1541   YZ=              1.3323
 Octapole moment (field-independent basis, Debye-Ang**2):
  XXX=             33.8530  YYY=             11.3980  ZZZ=             -7.9193  XYY=             -8.4080
  XXY=             -5.8455  XXZ=            -22.8981  XZZ=            -15.7344  YZZ=             -6.9703
  YYZ=             39.0289  XYZ=            -27.7058
 Hexadecapole moment (field-independent basis, Debye-Ang**3):
 XXXX=          -2024.4300 YYYY=          -1266.2923 ZZZZ=           -478.9164 XXXY=            500.1378
 XXXZ=              7.5406 YYYX=            608.8347 YYYZ=             26.1347 ZZZX=           -133.5462
 ZZZY=             15.6298 XXYY=           -540.3605 XXZZ=           -408.2762 YYZZ=           -273.5901
 XXYZ=            -44.3209 YYXZ=            -53.3889 ZZXY=            216.9147
 N-N= 7.883902167143D+02 E-N=-3.704967108736D+03  KE= 9.064120285922D+02
 Calling FoFJK, ICntrl=      2127 FMM=F ISym2X=0 I1Cent= 0 IOpClX= 0 NMat=1 NMatS=1 NMatT=0.
 -------------------------------------------------------------------
 Center     Atomic                   Forces (Hartrees/Bohr)
 Number     Number              X              Y              Z
 -------------------------------------------------------------------
      1        6           0.000173123   -0.000383499   -0.000185392
      2        6           0.000157666    0.000191916    0.000259484
      3        6           0.000422584   -0.000039617    0.000261271
      4        7           0.000502650   -0.000367004    0.000061450
      5        1           0.000020745    0.000032105    0.000039475
      6        1           0.000058342   -0.000008542    0.000033043
      7        8           0.000249140   -0.000860806   -0.000520503
      8        7          -0.000126935   -0.000168939   -0.000218611
      9        6          -0.000114950    0.000112339    0.000009749
     10        7          -0.000440767    0.000371060   -0.000008769
     11        1          -0.000053486    0.000030078   -0.000010214
     12        1          -0.000024882    0.000041131    0.000016941
     13        1           0.000047812   -0.000045546   -0.000003507
     14       16           0.000351536    0.000430770    0.000704446
     15        6          -0.000511408    0.000655192    0.000182890
     16        1          -0.000013902    0.000025703    0.000042087
     17        1          -0.000058385   -0.000014056   -0.000069841
     18        1          -0.000122337    0.000119518    0.000021588
     19        6           0.000081065   -0.000751948   -0.000661817
     20        1          -0.000030453   -0.000107416   -0.000127466
     21        1           0.000042088   -0.000093197   -0.000035912
     22        1           0.000058063   -0.000075630   -0.000053481
     23        6          -0.000492449    0.000725494    0.000280758
     24        1           0.000010974    0.000057440    0.000031599
     25        1          -0.000123685    0.000138911    0.000021892
     26        1          -0.000062149   -0.000015457   -0.000071160
 -------------------------------------------------------------------
 Cartesian Forces:  Max     0.000860806 RMS     0.000278549

 GradGradGradGradGradGradGradGradGradGradGradGradGradGradGradGradGradGrad
 Berny optimization.
 FormGI is forming the generalized inverse of G from B-inverse, IUseBI=4.
 GSVD:  received Info=                   1 from GESDD.
 Internal  Forces:  Max     0.010847623 RMS     0.001907148
 Search for a local minimum.
 Step number   1 out of a maximum of  126
 All quantities printed in internal units (Hartrees-Bohrs-Radians)
 Mixed Optimization -- RFO/linear search
 Second derivative matrix not updated -- first step.
 ITU=  0
     Eigenvalues ---    0.00230   0.00230   0.00230   0.00230   0.00230
     Eigenvalues ---    0.00230   0.01772   0.01882   0.01995   0.02122
     Eigenvalues ---    0.02161   0.02325   0.02348   0.02349   0.02438
     Eigenvalues ---    0.02478   0.03827   0.04176   0.05376   0.06098
     Eigenvalues ---    0.07105   0.07304   0.07308   0.07648   0.07652
     Eigenvalues ---    0.11132   0.13027   0.13114   0.13928   0.16000
     Eigenvalues ---    0.16000   0.16000   0.16000   0.16000   0.16000
     Eigenvalues ---    0.16000   0.16000   0.16000   0.16000   0.16000
     Eigenvalues ---    0.16000   0.16000   0.22065   0.23488   0.24269
     Eigenvalues ---    0.24341   0.24367   0.24904   0.25000   0.25000
     Eigenvalues ---    0.33805   0.34481   0.34492   0.34536   0.34542
     Eigenvalues ---    0.34548   0.34551   0.34555   0.34562   0.35458
     Eigenvalues ---    0.35681   0.38422   0.43158   0.45544   0.46144
     Eigenvalues ---    0.46299   0.48717   0.51714   0.52892   0.54943
     Eigenvalues ---    0.57942   0.87598
 RFO step:  Lambda=-1.14882236D-02 EMin= 2.30000000D-03
 Linear search not attempted -- first point.
 Maximum step size (   0.300) exceeded in Quadratic search.
    -- Step size scaled by   0.371
 Iteration  1 RMS(Cart)=  0.16868689 RMS(Int)=  0.01407217
 Iteration  2 RMS(Cart)=  0.10754606 RMS(Int)=  0.00284415
 Iteration  3 RMS(Cart)=  0.00562402 RMS(Int)=  0.00105167
 Iteration  4 RMS(Cart)=  0.00001373 RMS(Int)=  0.00105167
 Iteration  5 RMS(Cart)=  0.00000005 RMS(Int)=  0.00105167
 Variable       Old X    -DE/DX   Delta X   Delta X   Delta X     New X
                                 (Linear)    (Quad)   (Total)
    R1        2.66118  -0.00076   0.00000  -0.00067  -0.00067   2.66051
    R2        2.34060  -0.00069   0.00000  -0.00029  -0.00029   2.34031
    R3        2.57670   0.00057   0.00000   0.00043   0.00043   2.57713
    R4        2.56659  -0.00070   0.00000  -0.00052  -0.00052   2.56608
    R5        2.04584  -0.00002   0.00000  -0.00002  -0.00002   2.04582
    R6        2.71604   0.00016   0.00000   0.00020   0.00020   2.71624
    R7        2.57096  -0.00118   0.00000  -0.00089  -0.00089   2.57007
    R8        2.04938  -0.00002   0.00000  -0.00002  -0.00002   2.04936
    R9        1.91349  -0.00001   0.00000  -0.00001  -0.00001   1.91348
   R10        3.81488  -0.00127   0.00000  -0.00886  -0.00894   3.80593
   R11        2.51499   0.00113   0.00000   0.00076   0.00076   2.51575
   R12        2.55182  -0.00005   0.00000  -0.00003  -0.00003   2.55179
   R13        1.90669  -0.00004   0.00000  -0.00004  -0.00004   1.90665
   R14        1.90496   0.00002   0.00000   0.00002   0.00002   1.90497
   R15        3.44614   0.00026   0.00000   0.00037   0.00037   3.44651
   R16        3.44804  -0.00135   0.00000  -0.00197  -0.00197   3.44607
   R17        3.44545   0.00023   0.00000   0.00034   0.00034   3.44579
   R18        2.06434  -0.00004   0.00000  -0.00004  -0.00004   2.06430
   R19        2.06526  -0.00001   0.00000  -0.00001  -0.00001   2.06525
   R20        2.06409  -0.00012   0.00000  -0.00013  -0.00013   2.06397
   R21        2.07660  -0.00141   0.00000  -0.00150  -0.00134   2.07526
   R22        2.06404   0.00002   0.00000   0.00002   0.00002   2.06406
   R23        2.06392   0.00001   0.00000   0.00001   0.00001   2.06393
   R24        2.06425  -0.00005   0.00000  -0.00005  -0.00005   2.06420
   R25        2.06416  -0.00013   0.00000  -0.00014  -0.00014   2.06402
   R26        2.06508  -0.00002   0.00000  -0.00002  -0.00002   2.06506
    A1        2.07006  -0.00517   0.00000  -0.00732  -0.00732   2.06274
    A2        2.04806   0.00041   0.00000   0.00056   0.00056   2.04862
    A3        2.16506   0.00476   0.00000   0.00676   0.00676   2.17182
    A4        2.11999  -0.00014   0.00000  -0.00024  -0.00024   2.11975
    A5        2.03125   0.00020   0.00000   0.00029   0.00029   2.03154
    A6        2.13194  -0.00006   0.00000  -0.00005  -0.00005   2.13189
    A7        2.09475  -0.00029   0.00000  -0.00076  -0.00076   2.09399
    A8        2.15190   0.00021   0.00000   0.00051   0.00051   2.15241
    A9        2.03653   0.00009   0.00000   0.00025   0.00025   2.03678
   A10        2.14415   0.00076   0.00000   0.00092   0.00092   2.14506
   A11        2.02311  -0.00044   0.00000  -0.00059  -0.00059   2.02252
   A12        2.11593  -0.00032   0.00000  -0.00033  -0.00033   2.11560
   A13        1.73323   0.00961   0.00000   0.02079   0.02079   1.75401
   A14        2.09619  -0.00137   0.00000  -0.00164  -0.00164   2.09455
   A15        2.15198   0.00030   0.00000   0.00063   0.00063   2.15260
   A16        2.08530  -0.00108   0.00000  -0.00163  -0.00163   2.08367
   A17        2.04591   0.00078   0.00000   0.00101   0.00101   2.04691
   A18        2.07894   0.00007   0.00000   0.00016   0.00016   2.07910
   A19        2.13116  -0.00008   0.00000  -0.00017  -0.00017   2.13100
   A20        2.07303   0.00000   0.00000   0.00000   0.00000   2.07303
   A21        1.77286  -0.00109   0.00000  -0.00511  -0.00513   1.76774
   A22        1.77910  -0.00008   0.00000  -0.00246  -0.00248   1.77662
   A23        1.77398  -0.00104   0.00000  -0.00500  -0.00501   1.76896
   A24        1.87082   0.00005   0.00000   0.00012   0.00012   1.87094
   A25        1.91385  -0.00012   0.00000  -0.00033  -0.00033   1.91353
   A26        1.88230   0.00014   0.00000   0.00035   0.00035   1.88265
   A27        1.93357  -0.00004   0.00000  -0.00019  -0.00019   1.93337
   A28        1.91123   0.00000   0.00000   0.00015   0.00015   1.91138
   A29        1.94969  -0.00003   0.00000  -0.00008  -0.00008   1.94961
   A30        1.92180  -0.00924   0.00000  -0.02136  -0.01864   1.90316
   A31        1.86821   0.00295   0.00000   0.00630   0.00948   1.87768
   A32        1.86889   0.00328   0.00000   0.00707   0.01012   1.87901
   A33        1.94379   0.00234   0.00000   0.00435   0.00189   1.94568
   A34        1.94538   0.00221   0.00000   0.00409   0.00168   1.94706
   A35        1.91270  -0.00150   0.00000  -0.00032  -0.00398   1.90872
   A36        1.87136   0.00006   0.00000   0.00014   0.00014   1.87150
   A37        1.88196   0.00013   0.00000   0.00033   0.00033   1.88229
   A38        1.91460  -0.00013   0.00000  -0.00036  -0.00036   1.91424
   A39        1.91115   0.00001   0.00000   0.00018   0.00018   1.91133
   A40        1.93421  -0.00003   0.00000  -0.00018  -0.00018   1.93403
   A41        1.94824  -0.00002   0.00000  -0.00009  -0.00009   1.94815
   A42        3.12248   0.01085   0.00000   0.29739   0.29410   3.41659
   A43        3.12054   0.00051   0.00000   0.01401   0.01392   3.13446
    D1       -3.13938  -0.00007   0.00000  -0.00085  -0.00084  -3.14022
    D2        0.00004  -0.00007   0.00000  -0.00079  -0.00078  -0.00074
    D3        0.00227   0.00000   0.00000  -0.00000  -0.00000   0.00226
    D4       -3.14150   0.00001   0.00000   0.00006   0.00006  -3.14144
    D5       -3.13163  -0.00014   0.00000  -0.00088  -0.00087  -3.13249
    D6        0.00991  -0.00022   0.00000  -0.00178  -0.00177   0.00814
    D7       -0.00211   0.00003   0.00000   0.00031   0.00031  -0.00180
    D8        3.13954   0.00011   0.00000   0.00121   0.00120   3.14074
    D9       -3.14154   0.00003   0.00000   0.00027   0.00027  -3.14127
   D10        0.00000   0.00000   0.00000   0.00004   0.00004   0.00005
   D11       -0.00074   0.00002   0.00000   0.00018   0.00018  -0.00056
   D12        3.14080  -0.00001   0.00000  -0.00005  -0.00005   3.14075
   D13        0.00086   0.00001   0.00000   0.00013   0.00013   0.00099
   D14       -3.14135   0.00004   0.00000   0.00043   0.00042  -3.14093
   D15       -3.14153   0.00000   0.00000   0.00004   0.00004  -3.14149
   D16       -0.00056   0.00003   0.00000   0.00034   0.00033  -0.00023
   D17       -0.00080  -0.00003   0.00000  -0.00024  -0.00024  -0.00104
   D18       -3.14011  -0.00003   0.00000  -0.00031  -0.00030  -3.14041
   D19        3.14084  -0.00000   0.00000  -0.00003  -0.00003   3.14081
   D20        0.00153  -0.00001   0.00000  -0.00009  -0.00009   0.00144
   D21       -3.11937  -0.00008   0.00000  -0.00186  -0.00197  -3.12134
   D22        1.09722   0.00279   0.00000   0.06181   0.06757   1.16479
   D23       -1.03601  -0.00322   0.00000  -0.07383  -0.07943  -1.11544
   D24        0.00063  -0.00004   0.00000  -0.00038  -0.00038   0.00025
   D25       -3.14036  -0.00006   0.00000  -0.00067  -0.00067  -3.14102
   D26        3.13721  -0.00002   0.00000  -0.00019  -0.00019   3.13702
   D27        0.00681  -0.00001   0.00000  -0.00009  -0.00009   0.00672
   D28       -0.00497   0.00001   0.00000   0.00009   0.00009  -0.00487
   D29       -3.13537   0.00002   0.00000   0.00019   0.00019  -3.13518
   D30       -1.25907  -0.00070   0.00000  -0.00474  -0.00473  -1.26380
   D31        0.84104  -0.00078   0.00000  -0.00508  -0.00508   0.83596
   D32        2.96767  -0.00080   0.00000  -0.00516  -0.00516   2.96251
   D33       -3.08651   0.00072   0.00000   0.00259   0.00259  -3.08391
   D34       -0.98640   0.00064   0.00000   0.00225   0.00224  -0.98415
   D35        1.14023   0.00062   0.00000   0.00217   0.00216   1.14239
   D36       -0.89557   0.00024   0.00000   0.00005   0.00003  -0.89553
   D37        1.21987  -0.00048   0.00000  -0.00320  -0.00274   1.21713
   D38       -3.01336   0.00093   0.00000   0.00317   0.00271  -3.01065
   D39        0.93591  -0.00042   0.00000  -0.00525  -0.00525   0.93066
   D40        3.05135  -0.00113   0.00000  -0.00850  -0.00803   3.04332
   D41       -1.18188   0.00027   0.00000  -0.00212  -0.00257  -1.18446
   D42        3.06944  -0.00073   0.00000  -0.00248  -0.00248   3.06696
   D43       -1.15728  -0.00063   0.00000  -0.00202  -0.00202  -1.15930
   D44        0.96780  -0.00065   0.00000  -0.00214  -0.00214   0.96567
   D45        1.24287   0.00072   0.00000   0.00494   0.00494   1.24781
   D46       -2.98385   0.00083   0.00000   0.00540   0.00540  -2.97845
   D47       -0.85876   0.00080   0.00000   0.00528   0.00528  -0.85348
         Item               Value     Threshold  Converged?
 Maximum Force            0.010848     0.000450     NO 
 RMS     Force            0.001907     0.000300     NO 
 Maximum Displacement     0.735325     0.001800     NO 
 RMS     Displacement     0.272070     0.001200     NO 
 Predicted change in Energy=-4.028998D-03
 GradGradGradGradGradGradGradGradGradGradGradGradGradGradGradGradGradGrad

                          Input orientation:                          
 ---------------------------------------------------------------------
 Center     Atomic      Atomic             Coordinates (Angstroms)
 Number     Number       Type             X           Y           Z
 ---------------------------------------------------------------------
      1          6           0       -0.666074    0.999809    0.430680
      2          6           0       -3.141499    1.998557   -0.425617
      3          6           0       -2.485892    2.603646    0.598086
      4          7           0       -1.284520    2.121476    1.015075
      5          1           0       -4.098688    2.362375   -0.776969
      6          1           0       -2.869840    3.473064    1.120374
      7          8           0        0.428415    0.634608    0.880632
      8          7           0       -1.319260    0.388941   -0.598898
      9          6           0       -2.495334    0.856354   -1.012026
     10          7           0       -3.093867    0.209062   -2.034872
     11          1           0       -2.634915   -0.589808   -2.446171
     12          1           0       -3.982351    0.504015   -2.408771
     13          1           0       -0.780012    2.557383    1.777149
     14         16           0        2.846622   -2.193907    0.028237
     15          6           0        3.664254   -0.563653    0.020870
     16          1           0        3.973652   -0.362152   -1.007220
     17          1           0        2.965098    0.199466    0.371899
     18          1           0        4.546573   -0.628369    0.661366
     19          6           0        1.272000   -1.807138   -0.806282
     20          1           0        0.810176   -0.939818   -0.315900
     21          1           0        1.496392   -1.601014   -1.855174
     22          1           0        0.635430   -2.692104   -0.739317
     23          6           0        2.307938   -2.332800    1.764737
     24          1           0        1.732421   -3.257108    1.852012
     25          1           0        3.202184   -2.399612    2.388301
     26          1           0        1.695558   -1.467579    2.030366
 ---------------------------------------------------------------------
                    Distance matrix (angstroms):
                    1          2          3          4          5
     1  C    0.000000
     2  C    2.803297   0.000000
     3  C    2.431472   1.357910   0.000000
     4  N    1.407882   2.353524   1.360023   0.000000
     5  H    3.885594   1.082600   2.133096   3.344995   0.000000
     6  H    3.383674   2.153615   1.084476   2.085933   2.518652
     7  O    1.238440   4.038679   3.528474   2.272223   5.121277
     8  N    1.363760   2.437508   2.774657   2.368078   3.413410
     9  C    2.334132   1.437370   2.376043   2.678758   2.212260
    10  N    3.549424   2.407128   3.610559   4.029050   2.688633
    11  H    3.831382   3.322484   4.414505   4.599440   3.693813
    12  H    4.393858   2.621753   3.960938   4.649429   2.475846
    13  H    2.062038   3.277360   2.074213   1.012571   4.192273
    14  S    4.764538   7.323957   7.195621   6.054975   8.345382
    15  C    4.622132   7.285778   6.941849   5.717406   8.334354
    16  H    5.044755   7.519082   7.286885   6.156823   8.522837
    17  H    3.718793   6.415863   5.961925   4.708191   7.476306
    18  H    5.465883   8.196873   7.739864   6.456656   9.260340
    19  C    3.628382   5.840137   5.962300   5.028632   6.799264
    20  H    2.549284   4.925629   4.924995   3.940910   5.934139
    21  H    4.082360   6.042399   6.289375   5.461569   6.940886
    22  H    4.085710   6.030415   6.290968   5.471257   6.925392
    23  C    4.661624   7.297580   6.979283   5.771336   8.339652
    24  H    5.088645   7.520952   7.329048   6.223469   8.514222
    25  H    5.509243   8.216103   7.784065   6.515865   9.273521
    26  H    3.771512   6.437629   6.009228   4.774201   7.491526
                    6          7          8          9         10
     6  H    0.000000
     7  O    4.358072   0.000000
     8  N    3.856424   2.302982   0.000000
     9  C    3.396256   3.489933   1.331277   0.000000
    10  N    4.545270   4.592137   2.289893   1.350350   0.000000
    11  H    5.411318   4.685168   2.470084   2.041480   1.008958
    12  H    4.744238   5.503824   3.221946   2.070328   1.008068
    13  H    2.374280   2.441538   3.261676   3.689896   5.039846
    14  S    8.123132   3.817696   4.941557   6.238809   6.732020
    15  C    7.758762   3.556076   5.111455   6.404985   7.106010
    16  H    8.128280   4.138384   5.361510   6.582748   7.164649
    17  H    6.732248   2.623533   4.397053   5.671250   6.519486
    18  H    8.487381   4.313052   6.085326   7.388715   8.145387
    19  C    6.981932   3.085358   3.402999   4.618368   4.963395
    20  H    5.922747   2.014013   2.525903   3.825862   4.417730
    21  H    7.325581   3.690963   3.669612   4.762713   4.937524
    22  H    7.331758   3.705955   3.651489   4.740001   4.899274
    23  C    7.805937   3.622121   5.113826   6.399417   7.076552
    24  H    8.186044   4.217756   5.349149   6.557225   7.100371
    25  H    8.541981   4.378739   6.094493   7.390890   8.124648
    26  H    6.788291   2.710485   4.410082   5.676300   6.501990
                   11         12         13         14         15
    11  H    0.000000
    12  H    1.735924   0.000000
    13  H    5.584077   5.656255   0.000000
    14  S    6.224394   7.736451   6.227836   0.000000
    15  C    6.765095   8.094050   5.707617   1.823816   0.000000
    16  H    6.767242   8.124813   6.234880   2.386984   1.092381
    17  H    6.318593   7.489454   4.643313   2.420821   1.092882
    18  H    7.825091   9.135129   6.306069   2.396163   1.092204
    19  C    4.408527   5.959665   5.471190   1.823581   2.820162
    20  H    4.065613   5.425226   4.374926   2.416254   2.898392
    21  H    4.294125   5.895273   5.972274   2.392045   3.048817
    22  H    4.245958   5.858853   5.991093   2.393055   3.779149
    23  C    6.723211   8.064331   5.783553   1.823432   2.830292
    24  H    6.683000   8.059711   6.334528   2.387048   3.786788
    25  H    7.792255   9.113753   6.387738   2.395546   3.031334
    26  H    6.289901   7.472066   4.732113   2.420955   2.954814
                   16         17         18         19         20
    16  H    0.000000
    17  H    1.798489   0.000000
    18  H    1.784177   1.808360   0.000000
    19  C    3.070388   2.877698   3.777078   0.000000
    20  H    3.289256   2.532731   3.874624   1.098180   0.000000
    21  H    2.896657   3.218489   4.072176   1.092251   1.810369
    22  H    4.079727   3.875994   4.638745   1.092187   1.811167
    23  C    3.787057   2.963820   3.022251   2.821281   2.917660
    24  H    4.645331   3.957036   4.030801   3.062831   3.304575
    25  H    4.034348   3.298074   2.815490   3.779153   3.894279
    26  H    3.954568   2.672318   3.272113   2.888126   2.562693
                   21         22         23         24         25
    21  H    0.000000
    22  H    1.782378   0.000000
    23  C    3.781253   3.032601   0.000000
    24  H    4.067135   2.870123   1.092329   0.000000
    25  H    4.642689   4.056571   1.092233   1.784127   0.000000
    26  H    3.892928   3.208500   1.092783   1.798773   1.807409
                   26
    26  H    0.000000
 Symmetry turned off by external request.
 Stoichiometry    C7H14N3OS(1+)
 Framework group  C1[X(C7H14N3OS)]
 Deg. of freedom    72
 Full point group                 C1      NOp   1
 Rotational constants (GHZ):      1.5592094      0.3261159      0.2908394
 Standard basis: 6-31G(d) (6D, 7F)
   212 basis functions,   416 primitive gaussians,   212 cartesian basis functions
    50 alpha electrons       50 beta electrons
       nuclear repulsion energy       792.7034496133 Hartrees.
 NAtoms=   26 NActive=   26 NUniq=   26 SFac= 1.00D+00 NAtFMM=   60 NAOKFM=F Big=F
 Integral buffers will be    131072 words long.
 Raffenetti 2 integral format.
 Two-electron integral symmetry is turned off.
 One-electron integrals computed using PRISM.
 NBasis=   212 RedAO= T EigKep=  1.21D-03  NBF=   212
 NBsUse=   212 1.00D-06 EigRej= -1.00D+00 NBFU=   212
 Initial guess from the checkpoint file:  "/localscratch/enas93.52313799.0/Gau-22715.chk"
 B after Tr=     0.055515   -0.049464   -0.000506
         Rot=    0.999998    0.000247    0.001447   -0.001000 Ang=   0.20 deg.
 ExpMin= 1.17D-01 ExpMax= 2.19D+04 ExpMxC= 3.30D+03 IAcc=1 IRadAn=         1 AccDes= 0.00D+00
 Harris functional with IExCor=  402 and IRadAn=       1 diagonalized for initial guess.
 HarFok:  IExCor=  402 AccDes= 0.00D+00 IRadAn=         1 IDoV= 1 UseB2=F ITyADJ=14
 ICtDFT=  3500011 ScaDFX=  1.000000  1.000000  1.000000  1.000000
 FoFCou: FMM=F IPFlag=           0 FMFlag=      100000 FMFlg1=           0
         NFxFlg=           0 DoJE=T BraDBF=F KetDBF=T FulRan=T
         wScrn=  0.000000 ICntrl=     500 IOpCl=  0 I1Cent=   200000004 NGrid=           0
         NMat0=    1 NMatS0=      1 NMatT0=    0 NMatD0=    1 NMtDS0=    0 NMtDT0=    0
 Symmetry not used in FoFCou.
 Keep R1 ints in memory in canonical form, NReq=259882001.
 Requested convergence on RMS density matrix=1.00D-08 within 128 cycles.
 Requested convergence on MAX density matrix=1.00D-06.
 Requested convergence on             energy=1.00D-06.
 No special actions if energy rises.
 Integral accuracy reduced to 1.0D-05 until final iterations.
 Initial convergence to 1.0D-05 achieved.  Increase integral accuracy.
 SCF Done:  E(RB3LYP) =  -912.641724818     A.U. after   14 cycles
            NFock= 14  Conv=0.92D-08     -V/T= 2.0069
 Calling FoFJK, ICntrl=      2127 FMM=F ISym2X=0 I1Cent= 0 IOpClX= 0 NMat=1 NMatS=1 NMatT=0.
 -------------------------------------------------------------------
 Center     Atomic                   Forces (Hartrees/Bohr)
 Number     Number              X              Y              Z
 -------------------------------------------------------------------
      1        6          -0.006214420    0.001928061   -0.002875503
      2        6           0.000366625    0.000126965    0.000303260
      3        6          -0.000534751    0.000295245   -0.000164269
      4        7           0.001484632   -0.000987834    0.000326789
      5        1           0.000006930   -0.000020057    0.000022391
      6        1           0.000056575   -0.000034874    0.000028632
      7        8           0.004193475   -0.002361862    0.001183420
      8        7           0.003320442    0.000225128    0.002677212
      9        6          -0.001207420    0.000004920   -0.000985955
     10        7           0.000440817    0.000689204    0.000947447
     11        1           0.000256989   -0.000285091   -0.000073751
     12        1          -0.000063649    0.000064790    0.000020751
     13        1          -0.000124999    0.000072011   -0.000045491
     14       16          -0.001079220    0.001664007    0.000587667
     15        6          -0.000203651    0.001620844   -0.000245803
     16        1           0.000222462   -0.000296481   -0.000048374
     17        1          -0.000952931   -0.000544438    0.000341335
     18        1          -0.000006273   -0.000345010   -0.000071665
     19        6          -0.001556315   -0.000438111   -0.001670142
     20        1           0.000454244   -0.000746745   -0.000193952
     21        1           0.001116659   -0.000481630   -0.000196814
     22        1           0.000845522   -0.000962015    0.000318123
     23        6          -0.001121130    0.000471913    0.001069416
     24        1           0.000217664   -0.000250543   -0.000079162
     25        1           0.000108064   -0.000087523   -0.000240282
     26        1          -0.000026340    0.000679128   -0.000935280
 -------------------------------------------------------------------
 Cartesian Forces:  Max     0.006214420 RMS     0.001259528

 GradGradGradGradGradGradGradGradGradGradGradGradGradGradGradGradGradGrad
 Berny optimization.
 Using GEDIIS/GDIIS optimizer.
 FormGI is forming the generalized inverse of G from B-inverse, IUseBI=4.
 Internal  Forces:  Max     0.011638424 RMS     0.001933546
 Search for a local minimum.
 Step number   2 out of a maximum of  126
 All quantities printed in internal units (Hartrees-Bohrs-Radians)
 Mixed Optimization -- RFO/linear search
 Update second derivatives using D2CorX and points    1    2
 DE= -4.50D-03 DEPred=-4.03D-03 R= 1.12D+00
 TightC=F SS=  1.41D+00  RLast= 3.15D-01 DXNew= 5.0454D-01 9.4454D-01
 Trust test= 1.12D+00 RLast= 3.15D-01 DXMaxT set to 5.05D-01
 ITU=  1  0
 Use linear search instead of GDIIS.
     Eigenvalues ---   -0.59286   0.00067   0.00230   0.00230   0.00230
     Eigenvalues ---    0.00230   0.00238   0.01772   0.01883   0.01995
     Eigenvalues ---    0.02122   0.02160   0.02326   0.02348   0.02349
     Eigenvalues ---    0.02438   0.02478   0.03824   0.04479   0.05059
     Eigenvalues ---    0.06482   0.07170   0.07307   0.07319   0.07646
     Eigenvalues ---    0.07652   0.10435   0.11012   0.12972   0.13062
     Eigenvalues ---    0.13294   0.16000   0.16000   0.16000   0.16000
     Eigenvalues ---    0.16000   0.16000   0.16000   0.16000   0.16000
     Eigenvalues ---    0.16000   0.16000   0.20021   0.22100   0.23529
     Eigenvalues ---    0.24154   0.24342   0.24368   0.24862   0.24999
     Eigenvalues ---    0.33767   0.34441   0.34487   0.34533   0.34538
     Eigenvalues ---    0.34545   0.34548   0.34551   0.34559   0.35458
     Eigenvalues ---    0.35680   0.38378   0.43046   0.45300   0.45550
     Eigenvalues ---    0.46237   0.46301   0.51446   0.52424   0.54808
     Eigenvalues ---    0.57918   0.84993
 RFO step:  Lambda=-5.92920580D-01 EMin=-5.92861086D-01
 I=     1 Eig=   -5.93D-01 Dot1=  3.56D-03
 I=     1 Stepn=  6.00D-01 RXN=   6.00D-01 EDone=F
 Mixed    1 eigenvectors in step.  Raw Step.Grad=  3.56D-03.
 RFO eigenvector is Hessian eigenvector with negative curvature.
 Taking step of  6.00D-01 in eigenvector direction(s).  Step.Grad=  2.11D-03.
 Skip linear search -- no minimum in search direction.
 Maximum step size (   0.505) exceeded in Quadratic search.
    -- Step size not scaled.
 Iteration  1 RMS(Cart)=  0.35719939 RMS(Int)=  0.02268174
 Iteration  2 RMS(Cart)=  0.24190585 RMS(Int)=  0.00591186
 Iteration  3 RMS(Cart)=  0.01110441 RMS(Int)=  0.00092814
 Iteration  4 RMS(Cart)=  0.00002410 RMS(Int)=  0.00092813
 Iteration  5 RMS(Cart)=  0.00000005 RMS(Int)=  0.00092813
 Variable       Old X    -DE/DX   Delta X   Delta X   Delta X     New X
                                 (Linear)    (Quad)   (Total)
    R1        2.66051  -0.00099   0.00000  -0.00930  -0.00904   2.65147
    R2        2.34031   0.00249   0.00000   0.09270   0.09270   2.43301
    R3        2.57713  -0.00370   0.00000  -0.16608  -0.16592   2.41121
    R4        2.56608  -0.00037   0.00000   0.01618   0.01602   2.58209
    R5        2.04582  -0.00002   0.00000   0.00019   0.00019   2.04600
    R6        2.71624   0.00020   0.00000   0.00233   0.00207   2.71831
    R7        2.57007   0.00006   0.00000   0.05075   0.05085   2.62092
    R8        2.04936  -0.00003   0.00000  -0.00052  -0.00052   2.04884
    R9        1.91348  -0.00006   0.00000  -0.00221  -0.00221   1.91127
   R10        3.80593   0.00016   0.00000   0.09889   0.09882   3.90476
   R11        2.51575   0.00080   0.00000  -0.01517  -0.01526   2.50049
   R12        2.55179  -0.00119   0.00000  -0.04229  -0.04229   2.50950
   R13        1.90665   0.00037   0.00000   0.01678   0.01678   1.92343
   R14        1.90497   0.00007   0.00000   0.00184   0.00184   1.90681
   R15        3.44651  -0.00004   0.00000  -0.01547  -0.01547   3.43105
   R16        3.44607  -0.00290   0.00000  -0.07712  -0.07712   3.36895
   R17        3.44579   0.00000   0.00000  -0.01208  -0.01208   3.43370
   R18        2.06430   0.00006   0.00000   0.00432   0.00432   2.06863
   R19        2.06525   0.00034   0.00000   0.01580   0.01580   2.08104
   R20        2.06397  -0.00003   0.00000   0.00445   0.00445   2.06842
   R21        2.07526  -0.00116   0.00000   0.01211   0.01224   2.08750
   R22        2.06406   0.00033   0.00000   0.01412   0.01412   2.07818
   R23        2.06393   0.00031   0.00000   0.01350   0.01350   2.07743
   R24        2.06420   0.00009   0.00000   0.00650   0.00650   2.07070
   R25        2.06402  -0.00004   0.00000   0.00413   0.00413   2.06815
   R26        2.06506   0.00032   0.00000   0.01546   0.01546   2.08052
    A1        2.06274  -0.00103   0.00000   0.21832   0.21811   2.28086
    A2        2.04862   0.00166   0.00000   0.05814   0.05854   2.10716
    A3        2.17182  -0.00063   0.00000  -0.27645  -0.27666   1.89517
    A4        2.11975   0.00002   0.00000   0.00605   0.00627   2.12602
    A5        2.03154  -0.00005   0.00000  -0.00748  -0.00792   2.02362
    A6        2.13189   0.00003   0.00000   0.00143   0.00165   2.13354
    A7        2.09399  -0.00060   0.00000  -0.00757  -0.00765   2.08633
    A8        2.15241   0.00037   0.00000   0.00402   0.00407   2.15648
    A9        2.03678   0.00023   0.00000   0.00355   0.00359   2.04037
   A10        2.14506  -0.00026   0.00000  -0.05134  -0.05100   2.09406
   A11        2.02252   0.00026   0.00000   0.03643   0.03626   2.05878
   A12        2.11560   0.00000   0.00000   0.01492   0.01474   2.13035
   A13        1.75401   0.00450   0.00000  -0.30449  -0.30449   1.44953
   A14        2.09455  -0.00080   0.00000   0.02193   0.02204   2.11659
   A15        2.15260   0.00006   0.00000  -0.01367  -0.01401   2.13860
   A16        2.08367   0.00020   0.00000   0.06655   0.06672   2.15039
   A17        2.04691  -0.00026   0.00000  -0.05288  -0.05271   1.99420
   A18        2.07910  -0.00011   0.00000  -0.01037  -0.01037   2.06874
   A19        2.13100  -0.00001   0.00000   0.00381   0.00381   2.13481
   A20        2.07303   0.00012   0.00000   0.00657   0.00657   2.07960
   A21        1.76774  -0.00116   0.00000  -0.00344  -0.00367   1.76407
   A22        1.77662  -0.00037   0.00000  -0.01747  -0.01756   1.75906
   A23        1.76896  -0.00131   0.00000  -0.01523  -0.01533   1.75363
   A24        1.87094   0.00005   0.00000   0.00021  -0.00004   1.87090
   A25        1.91353  -0.00153   0.00000  -0.07907  -0.07988   1.83365
   A26        1.88265  -0.00023   0.00000  -0.02162  -0.02232   1.86033
   A27        1.93337   0.00079   0.00000   0.04769   0.04730   1.98068
   A28        1.91138   0.00013   0.00000   0.00688   0.00668   1.91806
   A29        1.94961   0.00073   0.00000   0.04205   0.04063   1.99024
   A30        1.90316  -0.01164   0.00000  -0.14424  -0.14402   1.75915
   A31        1.87768   0.00339   0.00000  -0.00559  -0.00446   1.87322
   A32        1.87901   0.00367   0.00000  -0.00733  -0.00583   1.87318
   A33        1.94568   0.00325   0.00000   0.06645   0.06214   2.00782
   A34        1.94706   0.00309   0.00000   0.06389   0.05935   2.00642
   A35        1.90872  -0.00176   0.00000   0.02079   0.01784   1.92656
   A36        1.87150   0.00009   0.00000   0.00225   0.00202   1.87353
   A37        1.88229  -0.00012   0.00000  -0.01431  -0.01488   1.86741
   A38        1.91424  -0.00159   0.00000  -0.08205  -0.08276   1.83148
   A39        1.91133   0.00011   0.00000   0.00553   0.00540   1.91673
   A40        1.93403   0.00074   0.00000   0.04432   0.04392   1.97795
   A41        1.94815   0.00071   0.00000   0.04085   0.03967   1.98782
   A42        3.41659   0.01085   0.00000   0.02781   0.02522   3.44181
   A43        3.13446   0.00039   0.00000  -0.00840  -0.00857   3.12589
    D1       -3.14022  -0.00009   0.00000  -0.00101  -0.00091  -3.14113
    D2       -0.00074  -0.00006   0.00000   0.00075   0.00083   0.00009
    D3        0.00226  -0.00002   0.00000  -0.00159  -0.00159   0.00067
    D4       -3.14144   0.00001   0.00000   0.00018   0.00015  -3.14129
    D5       -3.13249  -0.00008   0.00000   0.00362   0.00369  -3.12881
    D6        0.00814  -0.00016   0.00000   0.00445   0.00446   0.01260
    D7       -0.00180   0.00004   0.00000   0.00060   0.00058  -0.00122
    D8        3.14074   0.00011   0.00000  -0.00031  -0.00020   3.14054
    D9       -3.14127  -0.00000   0.00000  -0.00201  -0.00206   3.13985
   D10        0.00005  -0.00001   0.00000  -0.00095  -0.00096  -0.00092
   D11       -0.00056   0.00001   0.00000  -0.00025  -0.00029  -0.00085
   D12        3.14075   0.00001   0.00000   0.00082   0.00081   3.14156
   D13        0.00099   0.00000   0.00000  -0.00062  -0.00064   0.00035
   D14       -3.14093  -0.00000   0.00000  -0.00288  -0.00292   3.13934
   D15       -3.14149   0.00002   0.00000   0.00116   0.00114  -3.14036
   D16       -0.00023   0.00001   0.00000  -0.00109  -0.00114  -0.00137
   D17       -0.00104  -0.00000   0.00000   0.00145   0.00145   0.00041
   D18       -3.14041  -0.00004   0.00000  -0.00042  -0.00038  -3.14080
   D19        3.14081   0.00000   0.00000   0.00045   0.00042   3.14123
   D20        0.00144  -0.00003   0.00000  -0.00142  -0.00141   0.00003
   D21       -3.12134  -0.00016   0.00000  -0.00340  -0.00297  -3.12432
   D22        1.16479   0.00468   0.00000   0.07829   0.08187   1.24666
   D23       -1.11544  -0.00520   0.00000  -0.08705  -0.09097  -1.20641
   D24        0.00025  -0.00003   0.00000   0.00040   0.00047   0.00072
   D25       -3.14102  -0.00002   0.00000   0.00258   0.00254  -3.13849
   D26        3.13702   0.00001   0.00000   0.00163   0.00162   3.13865
   D27        0.00672  -0.00000   0.00000   0.00044   0.00044   0.00716
   D28       -0.00487   0.00000   0.00000  -0.00048  -0.00048  -0.00535
   D29       -3.13518  -0.00001   0.00000  -0.00167  -0.00166  -3.13684
   D30       -1.26380  -0.00093   0.00000  -0.01385  -0.01392  -1.27772
   D31        0.83596  -0.00082   0.00000  -0.00116  -0.00159   0.83437
   D32        2.96251  -0.00099   0.00000  -0.01078  -0.01024   2.95227
   D33       -3.08391   0.00085   0.00000   0.00764   0.00754  -3.07637
   D34       -0.98415   0.00097   0.00000   0.02033   0.01987  -0.96428
   D35        1.14239   0.00080   0.00000   0.01071   0.01122   1.15362
   D36       -0.89553   0.00039   0.00000   0.00969   0.00984  -0.88569
   D37        1.21713  -0.00040   0.00000   0.00315   0.00411   1.22124
   D38       -3.01065   0.00124   0.00000   0.02076   0.01962  -2.99103
   D39        0.93066  -0.00064   0.00000  -0.01353  -0.01336   0.91730
   D40        3.04332  -0.00143   0.00000  -0.02007  -0.01909   3.02424
   D41       -1.18446   0.00021   0.00000  -0.00246  -0.00358  -1.18803
   D42        3.06696  -0.00081   0.00000  -0.00406  -0.00388   3.06308
   D43       -1.15930  -0.00069   0.00000  -0.00384  -0.00423  -1.16353
   D44        0.96567  -0.00085   0.00000  -0.01210  -0.01170   0.95397
   D45        1.24781   0.00086   0.00000   0.00816   0.00821   1.25602
   D46       -2.97845   0.00097   0.00000   0.00839   0.00786  -2.97058
   D47       -0.85348   0.00081   0.00000   0.00012   0.00039  -0.85309
         Item               Value     Threshold  Converged?
 Maximum Force            0.011638     0.000450     NO 
 RMS     Force            0.001934     0.000300     NO 
 Maximum Displacement     2.296380     0.001800     NO 
 RMS     Displacement     0.590824     0.001200     NO 
 Predicted change in Energy=-1.106624D-01
 GradGradGradGradGradGradGradGradGradGradGradGradGradGradGradGradGradGrad

                          Input orientation:                          
 ---------------------------------------------------------------------
 Center     Atomic      Atomic             Coordinates (Angstroms)
 Number     Number       Type             X           Y           Z
 ---------------------------------------------------------------------
      1          6           0       -0.389140    1.208138    0.823259
      2          6           0       -2.789122    1.689018   -0.456022
      3          6           0       -2.405305    2.513794    0.563506
      4          7           0       -1.202398    2.282662    1.214018
      5          1           0       -3.720930    1.834496   -0.987819
      6          1           0       -2.994178    3.357208    0.906101
      7          8           0        0.748246    0.808632    1.275352
      8          7           0       -0.742322    0.435678   -0.128918
      9          6           0       -1.881815    0.619602   -0.775908
     10          7           0       -2.112304   -0.266540   -1.737748
     11          1           0       -1.419723   -0.993350   -1.905291
     12          1           0       -2.942810   -0.237641   -2.310100
     13          1           0       -0.881610    2.868424    1.973566
     14         16           0        2.305790   -2.054319   -0.249810
     15          6           0        3.262981   -0.512213   -0.202762
     16          1           0        3.511899   -0.254158   -1.237048
     17          1           0        2.601363    0.220460    0.285277
     18          1           0        4.177880   -0.729251    0.357522
     19          6           0        0.745354   -1.469577   -0.883370
     20          1           0        0.549823   -0.622426   -0.201919
     21          1           0        0.902123   -1.193395   -1.936242
     22          1           0        0.029388   -2.300379   -0.807965
     23          6           0        1.894661   -2.253162    1.508900
     24          1           0        1.237201   -3.125627    1.594076
     25          1           0        2.833929   -2.443296    2.037459
     26          1           0        1.405479   -1.309085    1.794458
 ---------------------------------------------------------------------
[...]
 ,0.00033052,-0.00020571,0.00021940,-0.00001227,0.00003575,0.00003085,0
 .00002085,0.00000050,-0.00000078,0.00134530,-0.00084841,-0.00098721,-0
 .00037858,0.00104657,-0.00019119,0.00010648,0.00039066,0.00050729,-0.0
 0000131,-0.00001219,-0.00005814,-0.00001794,0.00002376,-0.00001018,-0.
 00000337,-0.00000337,-0.00001537,-0.00002572,0.00005605,0.00007158,-0.
 10760960,-0.00462648,-0.04142905,-0.00723377,-0.00101122,-0.00584802,0
 .00014666,0.00101844,0.00007624,0.00153981,0.00146979,0.00066422,-0.00
 007702,-0.00122520,0.00064970,0.43264518,-0.00017867,-0.00001941,0.000
 00438,0.00005735,0.00002276,0.00014032,-0.00009231,-0.00000680,-0.0000
 4824,0.00013961,-0.00030376,0.00001230,0.00000399,-0.00002329,-0.00001
 305,0.00002157,0.00000134,-0.00000302,0.00048326,-0.00025817,-0.001433
 88,0.00112483,0.00033385,0.00007283,-0.00025757,-0.00022340,-0.0003659
 2,0.00010497,0.00001418,0.00003510,0.00000992,0.00000234,-0.00000628,-
 0.00000291,0.00001540,0.00000215,-0.00003563,0.00000020,0.00001896,0.0
 2248005,-0.05303648,0.02053722,-0.02522851,0.00081359,-0.01799082,0.00
 063745,0.00169487,-0.00005770,0.00068722,0.00254092,-0.00085189,-0.001
 44713,-0.00761828,0.00164801,-0.01116246,0.58968633,-0.00170734,0.0007
 2333,-0.00077842,0.00002589,0.00004603,-0.00000569,-0.00008432,0.00000
 425,-0.00009670,0.00056486,-0.00024356,-0.00002453,-0.00000210,0.00001
 394,0.00000635,0.00002016,-0.00001980,0.00001820,0.00031075,-0.0024775
 3,-0.00048485,-0.00014606,0.00004383,0.00108516,-0.00010015,0.00014432
 ,0.00000961,0.00004897,-0.00005496,0.00004023,-0.00002251,0.00000378,0
 .00001163,-0.00001360,0.00000064,0.00000125,-0.00001975,0.00009171,0.0
 0002548,-0.01568564,0.00078039,-0.06872238,0.00135422,-0.00106113,0.00
 367280,0.00034216,0.00025949,0.00040696,0.00074102,0.00049912,-0.00076
 553,0.00023872,0.00180459,-0.00047372,-0.12165377,-0.00391063,0.492740
 16,0.00523356,0.00051536,0.00390316,0.00047914,-0.00020983,-0.00004307
 ,0.00042510,-0.00001824,0.00029770,-0.00112404,0.00042500,-0.00077617,
 0.00008512,-0.00018197,-0.00012293,-0.00005826,-0.00000312,-0.00000888
 ,-0.00401382,0.00174133,0.00005223,0.00000540,-0.00114903,0.00067334,-
 0.00177424,-0.00059508,-0.00197966,0.00044134,0.00017411,0.00072810,-0
 .00020073,-0.00002429,-0.00030772,-0.00004906,0.00001152,-0.00002949,0
 .00017620,-0.00016550,-0.00006123,-0.02253619,0.01307177,-0.00392942,0
 .00169557,0.00090542,0.00152079,-0.00024291,-0.00021116,0.00000588,-0.
 00026317,-0.00103344,-0.00034489,0.00038192,0.00033376,-0.00007304,-0.
 15441496,0.12772658,0.04720864,0.16386225,0.00233997,-0.00260748,-0.00
 148329,-0.00039330,0.00025695,-0.00029519,0.00005556,0.00001942,0.0000
 3887,-0.00031845,0.00077777,0.00012514,-0.00005764,0.00012946,0.000071
 85,-0.00004532,0.00000154,0.00001394,-0.00011669,0.00000519,0.00165744
 ,-0.00225123,-0.00156341,-0.00107020,0.00186310,0.00049162,0.00187695,
 -0.00077448,-0.00040159,-0.00073679,0.00006028,0.00022914,0.00011053,0
 .00006503,-0.00004120,0.00000610,-0.00001225,-0.00003566,-0.00008778,-
 0.00564534,0.00436335,-0.00011112,0.00006307,0.00121384,0.00032843,0.0
 0000745,-0.00005470,-0.00003002,-0.00065595,0.00004043,-0.00002032,0.0
 0013972,-0.00016585,0.00004582,0.12783750,-0.20630161,-0.05029825,-0.1
 3370833,0.21372371,0.00572897,-0.00292903,0.00240503,-0.00019591,-0.00
 017013,-0.00006280,0.00037240,-0.00002016,0.00029518,-0.00150159,0.000
 67038,-0.00007844,0.00000315,-0.00002934,-0.00001643,-0.00005011,0.000
 04706,-0.00004281,-0.00184378,0.00320724,-0.00025643,-0.00034632,-0.00
 027171,-0.00275928,0.00038853,-0.00002846,0.00030970,-0.00019915,0.000
 00796,-0.00041542,-0.00022958,0.00004347,0.00002966,0.00002165,-0.0000
 3565,-0.00001309,0.00009115,-0.00020659,-0.00009015,-0.02189751,0.0135
 8165,-0.00282251,0.00230883,0.00060536,0.00047999,0.00011811,-0.000153
 87,-0.00005621,-0.00064828,-0.00068549,0.00062700,0.00017331,0.0003548
 8,-0.00009351,0.04754157,-0.05043594,-0.06683439,-0.04540674,0.0544678
 1,0.07056849,0.00050974,-0.00045801,0.00010197,-0.00008359,-0.00002064
 ,-0.00004404,0.00004594,0.00000135,0.00003661,-0.00017743,0.00010586,0
 .00002569,-0.00001014,0.00001379,0.00000963,-0.00000628,0.00000562,-0.
 00000593,-0.00012114,0.00057751,0.00031344,-0.00033806,0.00030992,-0.0
 0054862,0.00028796,0.00008691,0.00038657,-0.00007423,-0.00002824,-0.00
 023505,-0.00011181,0.00002298,0.00009830,-0.00000171,-0.00002075,-0.00
 000069,0.00000134,-0.00001337,-0.00001044,0.00611526,0.00274765,-0.026
 31702,0.00140546,0.00063511,0.00066105,-0.00017520,-0.00046247,0.00012
 191,-0.00012025,-0.00019337,-0.00001608,-0.00001818,0.00033933,0.00006
 669,-0.07971885,-0.00894827,0.09458013,-0.00357643,-0.00546575,0.01772
 582,0.08565004,-0.00045378,0.00031007,-0.00020647,0.00004949,0.0000128
 0,0.00001480,-0.00001754,-0.00000245,-0.00002956,0.00014733,-0.0000680
 4,-0.00001802,0.00000494,-0.00000387,-0.00000382,0.00000607,-0.0000048
 5,0.00000341,0.00008421,-0.00070489,-0.00008276,0.00007172,-0.00019816
 ,0.00046459,-0.00001890,-0.00003766,-0.00013589,-0.00001804,-0.0000354
 0,0.00008872,0.00005751,0.00005084,-0.00002936,0.00001229,0.00001535,0
 .00000183,0.00000029,0.00002045,-0.00000498,-0.00055411,-0.00117476,-0
 .00167663,0.00033135,0.00006965,-0.00029614,-0.00034895,-0.00006152,0.
 00005620,0.00009250,-0.00006949,-0.00017296,0.00002115,-0.00004810,0.0
 0015634,-0.00661105,-0.05039296,0.02345727,0.00515965,0.00567096,-0.02
 240357,0.01033534,0.04740110,-0.00003441,-0.00000014,-0.00006948,0.000
 00534,0.00001209,0.00000334,-0.00000319,0.00000153,-0.00000776,0.00002
 198,0.00000362,0.00000195,-0.00000090,0.00000091,0.00000078,0.00000107
 ,-0.00000058,0.00000060,-0.00002403,-0.00015809,0.00006504,-0.00001482
 ,-0.00007984,0.00009852,0.00006151,-0.00001881,0.00001178,-0.00002151,
 -0.00001351,-0.00002296,0.00002147,0.00000039,0.00001635,0.00000219,0.
 00000200,0.00000817,-0.00000036,0.00000625,-0.00000759,0.00250971,0.00
 150715,-0.01566505,0.00085654,0.00013862,0.00062214,-0.00050354,-0.000
 53118,0.00016680,0.00002845,-0.00012550,-0.00012614,-0.00009410,0.0000
 9573,0.00019298,0.09336293,0.02427251,-0.29314526,0.00156667,0.0014911
 0,-0.00346356,-0.09585119,-0.02669667,0.31301512,0.00057730,-0.0003084
 5,-0.00001146,-0.00005065,0.00001911,-0.00005602,0.00003071,0.00000628
 ,0.00002715,-0.00012670,0.00014214,-0.00001264,-0.00000659,0.00001498,
 0.00000455,-0.00000921,0.00000149,-0.00000056,-0.00025460,0.00042357,0
 .00045118,-0.00058032,-0.00016632,-0.00005444,0.00025574,0.00011754,0.
 00023212,-0.00013724,-0.00012149,-0.00006882,0.00002062,0.00010112,-0.
 00004475,0.00001006,0.00000288,-0.00001693,0.00000436,-0.00000850,-0.0
 0001255,-0.01286379,-0.02021636,0.00143897,-0.00465830,0.00135021,-0.0
 0374667,0.00011718,0.00038163,0.00002466,-0.00002505,0.00033943,-0.000
 12890,0.00002213,-0.00187970,0.00045348,-0.09575428,-0.10534168,0.0150
 7918,0.01326303,0.01683495,-0.00297971,-0.00385564,-0.00815663,0.00093
 198,0.10289070,-0.00049154,0.00020639,-0.00000883,0.00003990,-0.000010
 87,0.00006236,-0.00003296,-0.00000769,-0.00002473,0.00010762,-0.000121
 05,0.00002551,0.00000515,-0.00001140,-0.00000408,0.00000853,-0.0000011
 8,0.00000080,0.00029296,-0.00030188,-0.00047727,0.00058771,0.00017320,
 -0.00000880,-0.00017052,-0.00013432,-0.00018259,0.00009708,0.00009293,
 0.00003800,0.00001206,-0.00009297,0.00004682,-0.00000304,0.00000505,0.
 00001755,-0.00001094,0.00000232,0.00001222,0.00082995,0.00255715,-0.00
 117749,0.00077628,-0.00002761,0.00091270,0.00008393,-0.00009404,0.0000
 2699,0.00018687,0.00020684,0.00016854,0.00013350,0.00066045,0.00006249
 ,-0.10718835,-0.27806148,0.02996625,-0.01198750,-0.01565301,0.00399087
 ,0.00052179,-0.00111880,-0.00028149,0.11601314,0.29159336,-0.00006344,
 -0.00006638,-0.00007203,-0.00001392,-0.00000460,-0.00001088,0.00000795
 ,-0.00001038,0.00000833,-0.00000271,-0.00000025,0.00001428,-0.00000254
 ,0.00000491,0.00000309,0.00000023,-0.00000143,0.00000023,0.00020164,0.
 00006965,-0.00016288,-0.00006492,0.00011651,-0.00006344,0.00015646,0.0
 0000486,0.00014306,-0.00005467,-0.00003724,-0.00008687,-0.00001308,0.0
 0005795,0.00003191,0.00000690,-0.00000267,0.00000520,-0.00001157,-0.00
 000814,0.00000550,-0.01048387,-0.01733849,-0.00063862,-0.00406669,0.00
 078263,-0.00354939,-0.00016454,0.00006182,0.00010579,0.00008033,0.0004
 5901,-0.00005086,-0.00040619,-0.00166687,0.00069573,0.01676223,0.02880
 903,-0.04948524,-0.00401939,-0.00659775,0.00106211,0.01364997,0.028024
 08,-0.00034105,-0.01219526,-0.03259168,0.05180495,0.00075421,0.0000682
 2,-0.00010716,-0.00000393,0.00009067,0.00007393,-0.00014554,-0.0000281
 3,-0.00004266,0.00004125,0.00000032,0.00011778,-0.00000446,0.00000694,
 0.00000517,-0.00000051,-0.00000525,0.00000419,-0.00000015,0.00131513,-
 0.00040174,0.00004321,0.00016532,0.00017059,0.00011341,-0.00009701,-0.
 00004096,-0.00000072,0.00003297,0.00004165,0.00007246,-0.00003858,-0.0
 0000177,0.00000882,0.00000459,0.00001423,-0.00003789,0.00002728,-0.000
 03619,-0.07409739,-0.00479121,0.04429369,-0.00245530,-0.00020462,0.009
 25157,-0.00066562,-0.00187649,-0.00057610,0.00031446,0.00097499,-0.001
 15313,0.00002401,0.00077047,0.00009698,0.01278961,0.00010801,-0.023283
 60,0.00174568,0.00012099,0.00063844,-0.00667247,-0.00027841,-0.0034805
 0,0.00099167,0.00011878,0.00064985,0.54867741,-0.00193994,-0.00089525,
 -0.00071501,0.00005390,-0.00002185,0.00003753,-0.00009394,0.00005976,-
 0.00012331,0.00051637,-0.00026767,0.00004282,-0.00000905,0.00000881,0.
 00001465,0.00002507,-0.00000289,0.00000301,0.00405288,-0.00163217,0.00
 230126,0.00036000,0.00030005,0.00049588,-0.00021738,0.00006511,-0.0001
 3340,0.00009969,0.00006951,0.00013197,0.00003635,-0.00003951,-0.000010
 20,-0.00001430,0.00000488,-0.00000554,-0.00004007,0.00000379,0.0000669
 1,0.00950437,-0.05301411,-0.02917818,-0.01291795,0.00127775,0.02798554
 ,-0.00218259,-0.00756866,-0.00069583,0.00102185,0.00271342,0.00026452,
 0.00054211,0.00153283,-0.00032278,0.00044178,0.00195335,0.00024848,-0.
 00051746,-0.00079105,0.00057369,-0.00030180,-0.00016592,0.00018551,0.0
 0018134,0.00000767,-0.00040090,-0.00654307,0.59620788,0.00147649,0.000
 06803,0.00095385,-0.00006853,0.00000821,-0.00005832,0.00010748,-0.0000
 2908,0.00019356,-0.00076350,0.00035271,0.00007522,0.00000015,0.0000014
 0,-0.00000854,-0.00003461,0.00001527,-0.00001119,-0.00147789,0.0029664
 4,-0.00148612,-0.00023053,-0.00006049,-0.00060803,0.00027904,-0.000059
 13,0.00021537,-0.00010783,-0.00004611,-0.00019293,-0.00001910,0.000007
 50,0.00003819,0.00001158,-0.00001653,0.00001959,0.00000493,-0.00005127
 ,-0.00004266,0.01788243,0.00144627,-0.10073174,0.00240915,0.00140591,-
 0.00104224,-0.00015138,-0.00093109,0.00003853,-0.00133831,-0.00108031,
 0.00039519,-0.00014697,-0.00064648,0.00053389,0.00707623,-0.00067827,-
 0.01710346,0.00158024,0.00069050,0.00224252,-0.00316970,-0.00036596,-0
 .00139761,0.00116922,-0.00022522,0.00117676,0.09620956,0.00166215,0.37
 473809,0.00064569,0.00008819,0.00028538,-0.00003679,0.00000118,-0.0000
 2878,0.00005713,-0.00000613,0.00005259,-0.00023307,0.00013703,0.000021
 49,0.00000172,0.00000028,-0.00000463,-0.00000995,0.00000681,-0.0000037
 8,-0.00087493,0.00061311,-0.00066499,-0.00023856,-0.00014109,-0.000191
 91,0.00008958,0.00001131,0.00005329,-0.00005722,-0.00004919,-0.0000387
 2,-0.00000195,0.00002565,-0.00001442,0.00000559,0.00000365,-0.00000822
 ,0.00001765,-0.00000792,-0.00001690,-0.00635874,-0.00928979,0.00179165
 ,-0.00102916,0.00084338,0.00240312,0.00012505,-0.00081680,-0.00017541,
 -0.00001333,0.00010421,0.00010085,0.00015761,0.00027279,-0.00008231,0.
 00027615,0.00033438,-0.00073849,0.00004870,0.00010491,0.00004789,-0.00
 018018,0.00005288,-0.00000113,0.00027108,-0.00005066,0.00001525,-0.101
 25125,-0.10844132,0.01303984,0.10402836,-0.00067109,-0.00012241,-0.000
 28846,0.00003139,-0.00000442,0.00002493,-0.00005269,0.00000896,-0.0000
 4811,0.00022586,-0.00013373,-0.00001980,-0.00000185,0.00000201,0.00000
 453,0.00000977,-0.00000606,0.00000337,0.00090382,-0.00056531,0.0006703
 1,0.00021239,0.00014417,0.00018550,-0.00006595,0.00000292,-0.00003437,
 0.00004223,0.00003341,0.00003447,0.00000811,-0.00001792,0.00000932,-0.
 00000343,-0.00000041,0.00000511,-0.00002208,0.00000763,0.00001771,0.00
 155990,0.00295327,0.00049266,0.00032399,-0.00009157,-0.00133776,0.0000
 7938,0.00070785,-0.00010117,0.00007430,0.00018692,-0.00024190,0.000043
 93,-0.00009947,-0.00005694,0.00022729,0.00005148,0.00013964,-0.0000105
 5,-0.00017704,-0.00000780,0.00017145,0.00010979,0.00002587,0.00007888,
 0.00018804,0.00028856,-0.11023405,-0.27612233,0.02749048,0.11941831,0.
 28929210,-0.00029609,0.00013296,-0.00006176,0.00002839,-0.00002488,-0.
 00000653,-0.00000963,0.00001186,-0.00001110,0.00009711,-0.00008167,-0.
 00004666,0.00000274,-0.00000345,0.00000017,0.00000426,-0.00000339,0.00
 000092,0.00017167,-0.00039640,0.00032283,0.00013469,-0.00006892,0.0001
 3346,-0.00010812,0.00004975,-0.00006482,0.00003142,-0.00000238,0.00005
 296,-0.00000576,0.00001418,-0.00001750,-0.00000628,0.00000428,-0.00000
 682,-0.00000669,0.00001542,0.00000502,0.01366727,0.02454696,-0.0074728
 5,0.00255690,-0.00138006,-0.00705485,0.00074882,0.00232303,0.00052364,
 -0.00010698,-0.00059135,-0.00007192,0.00014600,-0.00019072,0.00003179,
 -0.00017441,0.00026666,0.00197623,-0.00018439,0.00012497,-0.00021816,0
 .00019902,-0.00024578,0.00020161,-0.00048430,-0.00027728,-0.00060445,0
 .01151253,0.02763546,-0.04722392,-0.01629842,-0.02949782,0.05374113,0.
 00069497,-0.00012867,0.00033009,-0.00003175,0.00001694,-0.00000420,0.0
 0001994,-0.00001129,0.00003799,-0.00022002,0.00012463,0.00004695,0.000
 00012,0.00000053,-0.00000135,-0.00001061,0.00000519,-0.00000477,-0.000
 44801,0.00094309,-0.00051419,-0.00013914,-0.00001754,-0.00025800,0.000
 14471,-0.00003905,0.00010074,-0.00004415,-0.00001511,-0.00008303,-0.00
 002329,0.00000973,0.00001956,0.00000409,-0.00000740,0.00000412,-0.0000
 1276,-0.00000852,-0.00003593,0.01128038,0.00178257,0.01162490,0.000587
 90,0.00050197,-0.00074411,0.00003499,0.00024490,0.00000718,-0.00012935
 ,-0.00010790,0.00000613,-0.00003548,-0.00019839,-0.00000317,-0.0026775
 2,-0.00034478,0.00392697,-0.00021934,-0.00006133,0.00011356,0.00158923
 ,0.00003839,0.00080924,-0.00016741,0.00013491,0.00000507,-0.20850922,-
 0.02024026,-0.14163637,-0.00928125,0.00053031,-0.00899583,0.21908307,-
 0.00050325,0.00010720,-0.00017452,0.00001976,-0.00002914,-0.00001090,0
 .00002836,-0.00000346,-0.00001699,0.00015804,-0.00009217,-0.00006388,0
 .00000002,-0.00000377,-0.00000019,0.00001040,-0.00000394,0.00000420,0.
 00020351,-0.00103816,0.00030589,0.00009400,-0.00000670,0.00012636,-0.0
 0009520,0.00003939,-0.00004683,0.00002479,0.00000345,0.00002844,0.0000
 0138,-0.00000298,-0.00000455,-0.00000086,0.00000334,-0.00000100,0.0000
 3577,0.00000318,0.00003429,0.00001912,-0.00131031,0.00138810,0.0003954
 4,0.00007542,0.00001754,-0.00005219,-0.00005960,-0.00014521,0.00016100
 ,-0.00006235,0.00010392,-0.00033968,-0.00006878,0.00018916,-0.00001274
 ,-0.00013784,0.00030694,-0.00010548,0.00002591,-0.00019814,0.00006297,
 0.00038633,0.00009690,0.00016434,0.00011556,0.00019996,-0.01803624,-0.
 05081041,-0.01803521,-0.02038762,-0.00117945,-0.02045884,0.02266148,0.
 04778010,-0.00045926,0.00010787,-0.00025182,0.00002457,0.00000102,0.00
 001612,-0.00004738,0.00001340,-0.00003196,0.00014587,-0.00009004,-0.00
 001326,-0.00000021,0.00000134,0.00000182,0.00000574,-0.00000359,0.0000
 0301,0.00034537,-0.00034104,0.00030054,0.00011899,0.00003272,0.0001982
 2,-0.00009636,0.00001127,-0.00008030,0.00003644,0.00001971,0.00006955,
 0.00002232,-0.00001197,-0.00001445,-0.00000362,0.00000532,-0.00000223,
 -0.00000754,0.00001405,0.00001627,-0.01698633,-0.00269419,-0.02053407,
 -0.00073230,-0.00036338,0.00151243,0.00016186,-0.00023496,0.00011829,-
 0.00002985,0.00021053,-0.00011721,0.00046612,0.00061212,-0.00013538,0.
 00411522,-0.00004799,-0.00535050,0.00050074,0.00000479,0.00031582,-0.0
 0197638,-0.00015506,-0.00060734,0.00018580,-0.00010696,0.00017644,-0.1
 4053045,-0.01767116,-0.16526276,0.00410474,0.00005179,0.00527341,0.147
 93298,0.01916643,0.18018134,-0.00445726,0.00173029,-0.00188637,0.00018
 520,-0.00014557,0.00002192,-0.00014349,0.00015697,-0.00008047,0.000601
 23,-0.00064715,-0.00026523,0.00000948,-0.00000065,-0.00000360,0.000022
 56,-0.00000565,0.00000249,0.00052258,-0.00065104,0.00141823,0.00095286
 ,0.00007144,0.00103842,-0.00087123,0.00017517,-0.00053020,0.00027497,0
 .00012496,0.00040271,0.00001770,-0.00004290,-0.00006580,-0.00004123,0.
 00002130,-0.00003221,0.00007874,0.00010723,0.00008663,-0.00793711,0.00
 625783,0.00715750,-0.00005023,0.00048051,-0.00126714,0.00025949,0.0001
 3035,-0.00012589,0.00024320,-0.00066512,0.00043702,-0.00024532,-0.0001
 0055,0.00010428,0.00095356,-0.00087925,-0.00098433,0.00063013,0.000013
 57,0.00002532,-0.00036340,-0.00000772,-0.00014937,0.00003519,-0.000014
 66,0.00002692,-0.17173177,0.13662343,0.00789838,0.01384208,-0.01287962
 ,-0.00262391,-0.01149011,0.01549288,0.00270290,0.17870219,0.00715157,-
 0.00101988,0.00251677,-0.00036894,0.00019072,-0.00009594,0.00041912,-0
 .00017924,0.00023669,-0.00152974,0.00136587,0.00016932,-0.00000543,-0.
 00000551,-0.00001715,-0.00006976,0.00002632,-0.00001099,-0.00357208,-0
 .00175680,-0.00164481,-0.00242572,-0.00052665,-0.00204861,0.00141210,-
 0.00029991,0.00083001,-0.00057380,-0.00030495,-0.00068876,-0.00004185,
 0.00013122,0.00005815,0.00008121,-0.00001804,0.00001680,0.00006257,-0.
 00017961,-0.00015669,-0.00378978,0.00390687,0.00203990,-0.00012702,0.0
 0119274,-0.00016456,0.00008094,-0.00022380,-0.00010237,-0.00059909,-0.
 00020161,0.00049143,0.00002525,-0.00005767,0.00000512,-0.00032765,-0.0
 0074713,-0.00046816,-0.00014350,0.00084332,0.00002550,-0.00002489,0.00
 003955,0.00006563,0.00002611,-0.00017269,-0.00015219,0.13832838,-0.212
 87298,-0.01388972,0.01717245,-0.01516842,-0.00190260,-0.00581440,0.006
 26921,0.00146801,-0.14534605,0.21976909,-0.00380402,0.00064510,-0.0019
 7417,0.00019522,-0.00011277,0.00005488,-0.00012311,0.00002660,-0.00027
 831,0.00144960,-0.00086403,-0.00019320,0.00000937,-0.00001043,0.000002
 49,0.00006925,-0.00003266,0.00002703,0.00188069,-0.00083051,0.00107231
 ,0.00090718,0.00005055,0.00113652,-0.00083820,0.00009305,-0.00044200,0
 .00030598,0.00014346,0.00037232,-0.00000067,-0.00004929,-0.00005298,-0
 .00003836,0.00002094,-0.00002248,-0.00000189,0.00002052,0.00020768,0.0
 2518472,-0.01966134,-0.01868595,-0.00214495,-0.00094088,0.00235802,-0.
 00035260,-0.00043362,0.00007736,0.00102352,0.00133919,-0.00005710,-0.0
 0005370,0.00019967,-0.00002211,0.00013604,0.00002415,0.00327663,-0.000
 75047,-0.00032355,-0.00111230,0.00019834,0.00025638,0.00044862,-0.0001
 8530,0.00003531,-0.00016767,0.00657411,-0.01239308,-0.04545124,-0.0036
 4800,0.00218986,0.00059818,-0.01268454,0.01718814,0.00421802,-0.013308
 20,0.01341923,0.05460946\\0.00000801,0.00000625,-0.00001161,0.00000351
 ,0.00000493,0.00000648,0.00000989,-0.00000136,0.00000795,-0.00000012,-
 0.00000109,0.00001141,0.00000122,0.00000562,0.00001112,0.00000421,0.00
 000128,0.00000943,-0.00000686,-0.00000281,0.00000086,0.00000560,0.0000
 0027,0.00001209,-0.00001327,-0.00000421,0.00001409,0.00000495,0.000015
 85,-0.00000274,-0.00000699,0.00000215,0.00000782,-0.00000723,0.0000030
 8,0.00001300,0.00000704,0.00000005,0.00000262,-0.00000154,0.00000029,-
 0.00000307,-0.00000284,-0.00000516,-0.00001227,-0.00000147,-0.00000342
 ,-0.00000702,0.00000080,-0.00000236,-0.00000292,0.00000129,-0.00000327
 ,-0.00000822,-0.00000988,-0.00000618,-0.00001302,0.00000068,0.00000515
 ,0.,-0.00000475,-0.00000054,-0.00000397,-0.00000239,-0.00000080,-0.000
 00467,0.00000208,-0.00000487,-0.00001021,0.00000187,-0.00000341,-0.000
 00559,0.00000298,-0.00000505,-0.00000707,0.00000323,-0.00000038,-0.000
 00447\\\@


 ON A TOMBSTONE, "HERE LIES LESTER MOORE,
 FOUR SLUGS FROM A 44, NO LES, NO MORE".
 Job cpu time:       0 days  0 hours 15 minutes 55.4 seconds.
 File lengths (MBytes):  RWF=    151 Int=      0 D2E=      0 Chk=      5 Scr=      1
 Normal termination of Gaussian 09 at Thu Oct  8 00:22:15 2020.
