 Entering Gaussian System, Link 0=g09
 Initial command:
 /opt/software/gaussian/g09.e01/l1.exe "/localscratch/enas93.61778912.0/Gau-35023.inp" -scrdir="/localscratch/enas93.61778912.0/"
 Entering Link 1 = /opt/software/gaussian/g09.e01/l1.exe PID=     35024.
  
 Copyright (c) 1988,1990,1992,1993,1995,1998,2003,2009,2015,
            Gaussian, Inc.  All Rights Reserved.
  
 This is part of the Gaussian(R) 09 program.  It is based on
 the Gaussian(R) 03 system (copyright 2003, Gaussian, Inc.),
 the Gaussian(R) 98 system (copyright 1998, Gaussian, Inc.),
 the Gaussian(R) 94 system (copyright 1995, Gaussian, Inc.),
 the Gaussian 92(TM) system (copyright 1992, Gaussian, Inc.),
 the Gaussian 90(TM) system (copyright 1990, Gaussian, Inc.),
 the Gaussian 88(TM) system (copyright 1988, Gaussian, Inc.),
 the Gaussian 86(TM) system (copyright 1986, Carnegie Mellon
 University), and the Gaussian 82(TM) system (copyright 1983,
 Carnegie Mellon University). Gaussian is a federally registered
 trademark of Gaussian, Inc.
  
 This software contains proprietary and confidential information,
 including trade secrets, belonging to Gaussian, Inc.
  
 This software is provided under written license and may be
 used, copied, transmitted, or stored only in accord with that
 written license.
  
 The following legend is applicable only to US Government
 contracts under FAR:
  
                    RESTRICTED RIGHTS LEGEND
  
 Use, reproduction and disclosure by the US Government is
 subject to restrictions as set forth in subparagraphs (a)
 and (c) of the Commercial Computer Software - Restricted
 Rights clause in FAR 52.227-19.
  
 Gaussian, Inc.
 340 Quinnipiac St., Bldg. 40, Wallingford CT 06492
  
  
 ---------------------------------------------------------------
 Warning -- This program may not be used in any manner that
 competes with the business of Gaussian, Inc. or will provide
 assistance to any competitor of Gaussian, Inc.  The licensee
 of this program is prohibited from giving any competitor of
 Gaussian, Inc. access to this program.  By using this program,
 the user acknowledges that Gaussian, Inc. is engaged in the
 business of creating and licensing software in the field of
 computational chemistry and represents and warrants to the
 licensee that it is not a competitor of Gaussian, Inc. and that
 it will not use this program in any manner prohibited above.
 ---------------------------------------------------------------
  

 Cite this work as:
 Gaussian 09, Revision E.01,
 M. J. Frisch, G. W. Trucks, H. B. Schlegel, G. E. Scuseria, 
 M. A. Robb, J. R. Cheeseman, G. Scalmani, V. Barone, B. Mennucci, 
 G. A. Petersson, H. Nakatsuji, M. Caricato, X. Li, H. P. Hratchian, 
 A. F. Izmaylov, J. Bloino, G. Zheng, J. L. Sonnenberg, M. Hada, 
 M. Ehara, K. Toyota, R. Fukuda, J. Hasegawa, M. Ishida, T. Nakajima, 
 Y. Honda, O. Kitao, H. Nakai, T. Vreven, J. A. Montgomery, Jr., 
 J. E. Peralta, F. Ogliaro, M. Bearpark, J. J. Heyd, E. Brothers, 
 K. N. Kudin, V. N. Staroverov, T. Keith, R. Kobayashi, J. Normand, 
 K. Raghavachari, A. Rendell, J. C. Burant, S. S. Iyengar, J. Tomasi, 
 M. Cossi, N. Rega, J. M. Millam, M. Klene, J. E. Knox, J. B. Cross, 
 V. Bakken, C. Adamo, J. Jaramillo, R. Gomperts, R. E. Stratmann, 
 O. Yazyev, A. J. Austin, R. Cammi, C. Pomelli, J. W. Ochterski, 
 R. L. Martin, K. Morokuma, V. G. Zakrzewski, G. A. Voth, 
 P. Salvador, J. J. Dannenberg, S. Dapprich, A. D. Daniels, 
 O. Farkas, J. B. Foresman, J. V. Ortiz, J. Cioslowski, 
 and D. J. Fox, Gaussian, Inc., Wallingford CT, 2013.
 
 ******************************************
 Gaussian 09:  EM64L-G09RevE.01 30-Nov-2015
                12-Feb-2021 
 ******************************************
 %nprocshared=16
 Will use up to   16 processors via shared memory.
 %mem=10GB
 --------------------------------
 # opt freq b3lyp/6-31g(d) nosymm
 --------------------------------
 1/14=-1,18=20,19=15,26=3,38=1/1,3;
 2/9=110,12=2,15=1,17=6,18=5,40=1/2;
 3/5=1,6=6,7=1,11=2,16=1,25=1,30=1,71=1,74=-5/1,2,3;
 4//1;
 5/5=2,38=5/2;
 6/7=2,8=2,9=2,10=2,28=1/1;
 7/30=1/1,2,3,16;
 1/14=-1,18=20,19=15,26=3/3(2);
 2/9=110,15=1/2;
 99//99;
 2/9=110,15=1/2;
 3/5=1,6=6,7=1,11=2,16=1,25=1,30=1,71=1,74=-5/1,2,3;
 4/5=5,16=3,69=1/1;
 5/5=2,38=5/2;
 7/30=1/1,2,3,16;
 1/14=-1,18=20,19=15,26=3/3(-5);
 2/9=110,15=1/2;
 6/7=2,8=2,9=2,10=2,19=2,28=1/1;
 99/9=1/99;
 -------------------
 Title Card Required
 -------------------
 Symbolic Z-matrix:
 Charge =  0 Multiplicity = 1
 C                    -0.16026   1.52058  -1.00513 
 C                    -2.67692   0.34512  -1.32152 
 C                    -2.41123   1.11022  -0.22096 
 N                    -1.24513   1.8084   -0.15783 
 H                    -3.6026   -0.20924  -1.40976 
 H                    -3.11847   1.26755   0.58114 
 O                     0.96019   1.95592  -0.70736 
 N                    -0.41067   0.75293  -2.10596 
 C                    -1.61052   0.19245  -2.249 
 N                    -1.76274  -0.63164  -3.334 
 H                    -1.06542  -0.52843  -4.05891 
 H                    -2.69738  -0.85573  -3.64283 
 H                    -0.98452   2.23704   0.72167 
 S                     2.88535  -1.30069   0.44691 
 C                     2.93913   0.40247   1.10598 
 H                     3.7192    0.93163   0.55543 
 H                     1.97526   0.89247   0.94672 
 H                     3.20255   0.33105   2.16324 
 C                     1.73781  -1.13321  -0.96648 
 H                     0.72123  -1.07594  -0.57269 
 H                     1.97064  -0.20529  -1.49061 
 H                     1.8785   -2.00596  -1.60685 
 C                     1.83315  -2.15847   1.66815 
 H                     1.63223  -3.15214   1.25847 
 H                     2.42091  -2.25468   2.58488 
 H                     0.87736  -1.59707   1.83518 
 C                    -1.38434   0.62922   3.22118 
 H                    -0.88115   1.54645   2.86926 
 H                    -2.42613   0.8957    3.44361 
 H                    -0.91307   0.36169   4.17544 
 S                    -1.30335  -0.75607   2.0082 
 
 Add virtual bond connecting atoms H17        and O7         Dist= 4.18D+00.
 Add virtual bond connecting atoms H28        and H13        Dist= 4.27D+00.
 Add virtual bond connecting atoms S31        and H26        Dist= 4.43D+00.

 GradGradGradGradGradGradGradGradGradGradGradGradGradGradGradGradGradGrad
 Berny optimization.
 Initialization pass.
                           ----------------------------
                           !    Initial Parameters    !
                           ! (Angstroms and Degrees)  !
 --------------------------                            --------------------------
 ! Name  Definition              Value          Derivative Info.                !
 --------------------------------------------------------------------------------
 ! R1    R(1,4)                  1.4063         estimate D2E/DX2                !
 ! R2    R(1,7)                  1.2384         estimate D2E/DX2                !
 ! R3    R(1,8)                  1.3652         estimate D2E/DX2                !
 ! R4    R(2,3)                  1.3665         estimate D2E/DX2                !
 ! R5    R(2,5)                  1.0826         estimate D2E/DX2                !
 ! R6    R(2,9)                  1.4215         estimate D2E/DX2                !
 ! R7    R(3,4)                  1.3606         estimate D2E/DX2                !
 ! R8    R(3,6)                  1.0809         estimate D2E/DX2                !
 ! R9    R(4,13)                 1.0125         estimate D2E/DX2                !
 ! R10   R(7,17)                 2.213          estimate D2E/DX2                !
 ! R11   R(8,9)                  1.332          estimate D2E/DX2                !
 ! R12   R(9,10)                 1.371          estimate D2E/DX2                !
 ! R13   R(10,11)                1.0111         estimate D2E/DX2                !
 ! R14   R(10,12)                1.0095         estimate D2E/DX2                !
 ! R15   R(13,28)                2.2583         estimate D2E/DX2                !
 ! R16   R(14,15)                1.827          estimate D2E/DX2                !
 ! R17   R(14,19)                1.8283         estimate D2E/DX2                !
 ! R18   R(14,23)                1.826          estimate D2E/DX2                !
 ! R19   R(15,16)                1.0916         estimate D2E/DX2                !
 ! R20   R(15,17)                1.0929         estimate D2E/DX2                !
 ! R21   R(15,18)                1.0919         estimate D2E/DX2                !
 ! R22   R(19,20)                1.0917         estimate D2E/DX2                !
 ! R23   R(19,21)                1.0908         estimate D2E/DX2                !
 ! R24   R(19,22)                1.0916         estimate D2E/DX2                !
 ! R25   R(23,24)                1.0934         estimate D2E/DX2                !
 ! R26   R(23,25)                1.0932         estimate D2E/DX2                !
 ! R27   R(23,26)                1.121          estimate D2E/DX2                !
 ! R28   R(26,31)                2.3437         estimate D2E/DX2                !
 ! R29   R(27,28)                1.1038         estimate D2E/DX2                !
 ! R30   R(27,29)                1.0981         estimate D2E/DX2                !
 ! R31   R(27,30)                1.0974         estimate D2E/DX2                !
 ! R32   R(27,31)                1.8431         estimate D2E/DX2                !
 ! A1    A(4,1,7)              118.7606         estimate D2E/DX2                !
 ! A2    A(4,1,8)              117.3489         estimate D2E/DX2                !
 ! A3    A(7,1,8)              123.883          estimate D2E/DX2                !
 ! A4    A(3,2,5)              121.24           estimate D2E/DX2                !
 ! A5    A(3,2,9)              116.0885         estimate D2E/DX2                !
 ! A6    A(5,2,9)              122.2273         estimate D2E/DX2                !
 ! A7    A(2,3,4)              119.4281         estimate D2E/DX2                !
 ! A8    A(2,3,6)              123.5013         estimate D2E/DX2                !
 ! A9    A(4,3,6)              116.85           estimate D2E/DX2                !
 ! A10   A(1,4,3)              121.8822         estimate D2E/DX2                !
 ! A11   A(1,4,13)             114.2949         estimate D2E/DX2                !
 ! A12   A(3,4,13)             118.5639         estimate D2E/DX2                !
 ! A13   A(1,7,17)             115.2012         estimate D2E/DX2                !
 ! A14   A(1,8,9)              119.236          estimate D2E/DX2                !
 ! A15   A(2,9,8)              124.0904         estimate D2E/DX2                !
 ! A16   A(2,9,10)             119.8432         estimate D2E/DX2                !
 ! A17   A(8,9,10)             115.9719         estimate D2E/DX2                !
 ! A18   A(9,10,11)            115.4334         estimate D2E/DX2                !
 ! A19   A(9,10,12)            118.5765         estimate D2E/DX2                !
 ! A20   A(11,10,12)           116.2193         estimate D2E/DX2                !
 ! A21   A(4,13,28)            135.104          estimate D2E/DX2                !
 ! A22   A(15,14,19)           102.2369         estimate D2E/DX2                !
 ! A23   A(15,14,23)           102.3337         estimate D2E/DX2                !
 ! A24   A(19,14,23)           101.4428         estimate D2E/DX2                !
 ! A25   A(14,15,16)           106.9166         estimate D2E/DX2                !
 ! A26   A(14,15,17)           109.8412         estimate D2E/DX2                !
 ! A27   A(14,15,18)           107.1823         estimate D2E/DX2                !
 ! A28   A(16,15,17)           109.8393         estimate D2E/DX2                !
 ! A29   A(16,15,18)           110.3435         estimate D2E/DX2                !
 ! A30   A(17,15,18)           112.5311         estimate D2E/DX2                !
 ! A31   A(7,17,15)            136.7936         estimate D2E/DX2                !
 ! A32   A(14,19,20)           108.0849         estimate D2E/DX2                !
 ! A33   A(14,19,21)           108.3852         estimate D2E/DX2                !
 ! A34   A(14,19,22)           107.4204         estimate D2E/DX2                !
 ! A35   A(20,19,21)           109.1142         estimate D2E/DX2                !
 ! A36   A(20,19,22)           111.9355         estimate D2E/DX2                !
 ! A37   A(21,19,22)           111.7606         estimate D2E/DX2                !
 ! A38   A(14,23,24)           106.3914         estimate D2E/DX2                !
 ! A39   A(14,23,25)           107.0            estimate D2E/DX2                !
 ! A40   A(14,23,26)           110.8365         estimate D2E/DX2                !
 ! A41   A(24,23,25)           109.4511         estimate D2E/DX2                !
 ! A42   A(24,23,26)           110.7491         estimate D2E/DX2                !
 ! A43   A(25,23,26)           112.1815         estimate D2E/DX2                !
 ! A44   A(28,27,29)           107.1823         estimate D2E/DX2                !
 ! A45   A(28,27,30)           106.5024         estimate D2E/DX2                !
 ! A46   A(28,27,31)           113.2483         estimate D2E/DX2                !
 ! A47   A(29,27,30)           106.885          estimate D2E/DX2                !
 ! A48   A(29,27,31)           110.9406         estimate D2E/DX2                !
 ! A49   A(30,27,31)           111.727          estimate D2E/DX2                !
 ! A50   A(13,28,27)           122.4426         estimate D2E/DX2                !
 ! A51   A(26,31,27)           111.05           estimate D2E/DX2                !
 ! A52   L(23,26,31,7,-1)      184.3527         estimate D2E/DX2                !
 ! A53   L(23,26,31,7,-2)      170.3734         estimate D2E/DX2                !
 ! D1    D(7,1,4,3)           -163.2613         estimate D2E/DX2                !
 ! D2    D(7,1,4,13)            -9.2888         estimate D2E/DX2                !
 ! D3    D(8,1,4,3)             15.7815         estimate D2E/DX2                !
 ! D4    D(8,1,4,13)           169.754          estimate D2E/DX2                !
 ! D5    D(4,1,7,17)            75.1711         estimate D2E/DX2                !
 ! D6    D(8,1,7,17)          -103.8048         estimate D2E/DX2                !
 ! D7    D(4,1,8,9)             -7.496          estimate D2E/DX2                !
 ! D8    D(7,1,8,9)            171.4932         estimate D2E/DX2                !
 ! D9    D(5,2,3,4)           -178.9756         estimate D2E/DX2                !
 ! D10   D(5,2,3,6)             -4.5486         estimate D2E/DX2                !
 ! D11   D(9,2,3,4)              8.5077         estimate D2E/DX2                !
 ! D12   D(9,2,3,6)           -177.0653         estimate D2E/DX2                !
 ! D13   D(3,2,9,8)             -0.7016         estimate D2E/DX2                !
 ! D14   D(3,2,9,10)           175.6165         estimate D2E/DX2                !
 ! D15   D(5,2,9,8)           -173.1377         estimate D2E/DX2                !
 ! D16   D(5,2,9,10)             3.1805         estimate D2E/DX2                !
 ! D17   D(2,3,4,1)            -16.4322         estimate D2E/DX2                !
 ! D18   D(2,3,4,13)          -169.3436         estimate D2E/DX2                !
 ! D19   D(6,3,4,1)            168.7754         estimate D2E/DX2                !
 ! D20   D(6,3,4,13)            15.864          estimate D2E/DX2                !
 ! D21   D(1,4,13,28)         -106.584          estimate D2E/DX2                !
 ! D22   D(3,4,13,28)           48.3134         estimate D2E/DX2                !
 ! D23   D(1,7,17,15)          126.1006         estimate D2E/DX2                !
 ! D24   D(1,8,9,2)              0.3967         estimate D2E/DX2                !
 ! D25   D(1,8,9,10)          -176.0511         estimate D2E/DX2                !
 ! D26   D(2,9,10,11)          166.1143         estimate D2E/DX2                !
 ! D27   D(2,9,10,12)           21.4169         estimate D2E/DX2                !
 ! D28   D(8,9,10,11)          -17.277          estimate D2E/DX2                !
 ! D29   D(8,9,10,12)         -161.9744         estimate D2E/DX2                !
 ! D30   D(4,13,28,27)         -16.1347         estimate D2E/DX2                !
 ! D31   D(19,14,15,16)        -87.091          estimate D2E/DX2                !
 ! D32   D(19,14,15,17)         32.0437         estimate D2E/DX2                !
 ! D33   D(19,14,15,18)        154.5894         estimate D2E/DX2                !
 ! D34   D(23,14,15,16)        168.1224         estimate D2E/DX2                !
 ! D35   D(23,14,15,17)        -72.7429         estimate D2E/DX2                !
 ! D36   D(23,14,15,18)         49.8029         estimate D2E/DX2                !
 ! D37   D(15,14,19,20)        -76.466          estimate D2E/DX2                !
 ! D38   D(15,14,19,21)         41.668          estimate D2E/DX2                !
 ! D39   D(15,14,19,22)        162.5811         estimate D2E/DX2                !
 ! D40   D(23,14,19,20)         29.0141         estimate D2E/DX2                !
 ! D41   D(23,14,19,21)        147.1481         estimate D2E/DX2                !
 ! D42   D(23,14,19,22)        -91.9388         estimate D2E/DX2                !
 ! D43   D(15,14,23,24)        171.7188         estimate D2E/DX2                !
 ! D44   D(15,14,23,25)        -71.3513         estimate D2E/DX2                !
 ! D45   D(15,14,23,26)         51.2492         estimate D2E/DX2                !
 ! D46   D(19,14,23,24)         66.315          estimate D2E/DX2                !
 ! D47   D(19,14,23,25)       -176.755          estimate D2E/DX2                !
 ! D48   D(19,14,23,26)        -54.1545         estimate D2E/DX2                !
 ! D49   D(14,15,17,7)         -82.6343         estimate D2E/DX2                !
 ! D50   D(16,15,17,7)          34.6915         estimate D2E/DX2                !
 ! D51   D(18,15,17,7)         158.0448         estimate D2E/DX2                !
 ! D52   D(14,23,31,27)        -86.5036         estimate D2E/DX2                !
 ! D53   D(24,23,31,27)        158.4162         estimate D2E/DX2                !
 ! D54   D(25,23,31,27)         38.1888         estimate D2E/DX2                !
 ! D55   D(29,27,28,13)        -84.0564         estimate D2E/DX2                !
 ! D56   D(30,27,28,13)        161.8211         estimate D2E/DX2                !
 ! D57   D(31,27,28,13)         38.6267         estimate D2E/DX2                !
 ! D58   D(28,27,31,26)         70.1405         estimate D2E/DX2                !
 ! D59   D(29,27,31,26)       -169.2853         estimate D2E/DX2                !
 ! D60   D(30,27,31,26)        -50.1241         estimate D2E/DX2                !
 --------------------------------------------------------------------------------
 Trust Radius=3.00D-01 FncErr=1.00D-07 GrdErr=1.00D-06
 Number of steps in this run=    155 maximum allowed number of steps=    186.
 GradGradGradGradGradGradGradGradGradGradGradGradGradGradGradGradGradGrad

                          Input orientation:                          
 ---------------------------------------------------------------------
 Center     Atomic      Atomic             Coordinates (Angstroms)
 Number     Number       Type             X           Y           Z
 ---------------------------------------------------------------------
      1          6           0       -0.160262    1.520575   -1.005127
      2          6           0       -2.676922    0.345115   -1.321519
      3          6           0       -2.411228    1.110218   -0.220956
      4          7           0       -1.245134    1.808403   -0.157829
      5          1           0       -3.602595   -0.209239   -1.409760
      6          1           0       -3.118466    1.267554    0.581139
      7          8           0        0.960192    1.955915   -0.707363
      8          7           0       -0.410666    0.752925   -2.105955
      9          6           0       -1.610521    0.192450   -2.248995
     10          7           0       -1.762735   -0.631644   -3.333996
     11          1           0       -1.065422   -0.528426   -4.058912
     12          1           0       -2.697382   -0.855732   -3.642834
     13          1           0       -0.984521    2.237039    0.721667
     14         16           0        2.885348   -1.300693    0.446907
     15          6           0        2.939126    0.402471    1.105984
     16          1           0        3.719196    0.931628    0.555429
     17          1           0        1.975263    0.892474    0.946715
     18          1           0        3.202550    0.331051    2.163235
     19          6           0        1.737812   -1.133208   -0.966478
     20          1           0        0.721227   -1.075945   -0.572688
     21          1           0        1.970641   -0.205293   -1.490607
     22          1           0        1.878497   -2.005957   -1.606847
     23          6           0        1.833148   -2.158470    1.668147
     24          1           0        1.632227   -3.152136    1.258470
     25          1           0        2.420908   -2.254684    2.584879
     26          1           0        0.877364   -1.597065    1.835175
     27          6           0       -1.384340    0.629217    3.221184
     28          1           0       -0.881150    1.546454    2.869260
     29          1           0       -2.426130    0.895704    3.443608
     30          1           0       -0.913073    0.361687    4.175438
     31         16           0       -1.303352   -0.756070    2.008196
 ---------------------------------------------------------------------
                    Distance matrix (angstroms):
                    1          2          3          4          5
     1  C    0.000000
     2  C    2.795601   0.000000
     3  C    2.418711   1.366461   0.000000
     4  N    1.406309   2.354868   1.360596   0.000000
     5  H    3.873712   1.082573   2.138592   3.346017   0.000000
     6  H    3.366189   2.160084   1.080878   2.085177   2.525664
     7  O    1.238387   4.024980   3.509739   2.277545   5.099047
     8  N    1.365215   2.432605   2.771846   2.367608   3.405710
     9  C    2.326881   1.421524   2.365665   2.667918   2.198642
    10  N    3.552970   2.416580   3.625692   4.038536   2.695588
    11  H    3.787258   3.294439   4.384775   4.550991   3.682001
    12  H    4.363635   2.613610   3.956778   4.620812   2.494791
    13  H    2.043169   3.258559   2.047866   1.012502   4.169121
    14  S    4.398147   6.064228   5.857666   5.205100   6.836073
    15  C    3.913202   6.118501   5.557694   4.591503   7.035430
    16  H    4.222841   6.691581   6.181971   5.091370   7.666301
    17  H    2.960518   5.204547   4.544466   3.525606   6.154612
    18  H    4.770953   6.834610   6.148656   5.229895   7.705077
    19  C    3.262935   4.669194   4.775280   4.266727   5.437846
    20  H    2.775958   3.758667   3.836052   3.515416   4.488575
    21  H    2.784791   4.683095   4.747985   4.021502   5.573824
    22  H    4.117649   5.134276   5.480235   5.138683   5.771430
    23  C    4.965425   5.962111   5.680472   5.342854   6.543723
    24  H    5.492824   6.120120   6.058539   5.906950   6.571412
    25  H    5.814049   6.928692   6.522639   6.121355   7.511563
    26  H    4.343232   5.135146   4.729894   4.480432   5.703130
    27  C    4.489386   4.731557   3.624112   3.581562   5.202817
    28  H    3.940967   4.714938   3.475755   3.060126   5.366445
    29  H    5.031487   4.803382   3.670867   3.898477   5.114699
    30  H    5.361716   5.773039   4.704577   4.580443   6.225265
    31  S    3.945869   3.766471   3.111196   3.357317   4.155474
                    6          7          8          9         10
     6  H    0.000000
     7  O    4.332381   0.000000
     8  N    3.849350   2.298368   0.000000
     9  C    3.382219   3.477787   1.332008   0.000000
    10  N    4.557767   4.583557   2.291987   1.370958   0.000000
    11  H    5.382435   4.637666   2.425821   2.023016   1.011139
    12  H    4.746325   5.468107   3.190430   2.054931   1.009535
    13  H    2.348057   2.429623   3.244588   3.660198   5.028256
    14  S    6.531439   3.955257   4.647382   5.450707   6.028891
    15  C    6.141519   3.101225   4.654082   5.656791   6.549070
    16  H    6.845957   3.202485   4.916367   6.067706   6.900943
    17  H    5.120586   2.212973   3.876974   4.853910   5.883881
    18  H    6.582956   3.988569   5.608858   6.530899   7.469966
    19  C    5.634023   3.196015   3.077639   3.822768   4.255648
    20  H    4.643980   3.044243   2.641374   3.139408   3.740627
    21  H    5.688622   2.511035   2.639594   3.682129   4.185446
    22  H    6.361823   4.165187   3.619504   4.173559   4.257975
    23  C    6.118636   4.830452   5.268279   5.720986   6.346890
    24  H    6.523919   5.514374   5.544571   5.831293   6.242547
    25  H    6.863366   5.540911   6.250396   6.753312   7.427665
    26  H    5.073983   4.369786   4.765919   5.106112   5.884088
    27  C    3.222500   4.763448   5.416803   5.492247   6.686055
    28  H    3.212299   4.043567   5.060021   5.344328   6.633377
    29  H    2.968389   5.460933   5.905940   5.793575   6.979169
    30  H    4.313159   5.467397   6.313587   6.464396   7.622351
    31  S    3.070209   4.455643   4.472157   4.372381   5.363351
                   11         12         13         14         15
    11  H    0.000000
    12  H    1.715676   0.000000
    13  H    5.523430   5.616760   0.000000
    14  S    6.042134   6.934756   5.250422   0.000000
    15  C    6.601449   7.476936   4.348373   1.827031   0.000000
    16  H    6.805620   7.873534   4.884331   2.385443   1.091617
    17  H    6.026693   6.778923   3.258654   2.426529   1.092932
    18  H    7.594037   8.362302   4.821045   2.389349   1.091912
    19  C    4.217467   5.187564   4.649677   1.828263   2.845446
    20  H    3.955458   4.600128   3.944717   2.402812   3.150036
    21  H    3.989772   5.181273   4.426299   2.406356   2.837186
    22  H    4.106383   5.138767   5.623332   2.393544   3.779539
    23  C    6.622534   7.101362   5.306183   1.826016   2.845634
    24  H    6.514270   6.931217   6.014876   2.378400   3.790312
    25  H    7.698988   8.181587   5.936673   2.386782   3.084826
    26  H    6.297354   6.583082   4.405323   2.459090   2.963229
    27  C    7.378458   7.144501   2.998755   5.445310   4.818490
    28  H    7.234546   7.174717   2.258262   5.306651   4.360315
    29  H    7.756770   7.304708   3.359521   6.481989   5.873137
    30  H    8.283721   8.111180   3.930723   5.576150   4.925713
    31  S    6.076038   5.821288   3.273456   4.503271   4.489412
                   16         17         18         19         20
    16  H    0.000000
    17  H    1.787719   0.000000
    18  H    1.792388   1.816962   0.000000
    19  C    3.241239   2.796440   3.752948   0.000000
    20  H    3.780319   2.784935   3.952452   1.091693   0.000000
    21  H    2.921694   2.673135   3.893048   1.090847   1.778102
    22  H    4.085709   3.864058   4.629065   1.091584   1.809332
    23  C    3.787351   3.138299   2.884110   2.828692   2.725724
    24  H    4.639702   4.071085   3.926462   3.006262   2.914383
    25  H    3.994597   3.575861   2.734003   3.786352   3.774728
    26  H    4.013483   2.862263   3.038379   2.967287   2.468552
    27  C    5.765742   4.065642   4.716749   5.512757   4.662023
    28  H    5.186040   3.504706   4.318829   5.362130   4.614282
    29  H    6.790280   5.060311   5.800020   6.395604   5.470273
    30  H    5.906540   4.364501   4.581294   5.975048   5.223258
    31  S    5.494074   3.820177   4.637782   4.270784   3.295786
                   21         22         23         24         25
    21  H    0.000000
    22  H    1.806763   0.000000
    23  C    3.716387   3.278857   0.000000
    24  H    4.044234   3.095871   1.093424   0.000000
    25  H    4.583921   4.233986   1.093214   1.785161   0.000000
    26  H    3.767374   3.607905   1.120980   1.822266   1.837674
    27  C    5.844081   6.395321   4.531595   5.220206   4.816812
    28  H    5.496341   6.345929   4.747267   5.566728   5.043125
    29  H    6.700020   7.242689   5.533687   6.134338   5.844325
    30  H    6.382894   6.843495   4.492152   5.228213   4.526666
    31  S    4.823278   4.975431   3.452534   3.862751   4.055677
                   26         27         28         29         30
    26  H    0.000000
    27  C    3.463042   0.000000
    28  H    3.747454   1.103800   0.000000
    29  H    4.440048   1.098096   1.772093   0.000000
    30  H    3.538249   1.097390   1.763744   1.763545   0.000000
    31  S    2.343658   1.843073   2.494254   2.459552   2.469542
                   31
    31  S    0.000000
 Symmetry turned off by external request.
 Stoichiometry    C8H17N3OS2
 Framework group  C1[X(C8H17N3OS2)]
 Deg. of freedom    87
 Full point group                 C1      NOp   1
 Rotational constants (GHZ):      0.5588791      0.3804057      0.2985080
 Standard basis: 6-31G(d) (6D, 7F)
   252 basis functions,   508 primitive gaussians,   252 cartesian basis functions
    63 alpha electrons       63 beta electrons
       nuclear repulsion energy      1172.4629993351 Hartrees.
 NAtoms=   31 NActive=   31 NUniq=   31 SFac= 1.00D+00 NAtFMM=   60 NAOKFM=F Big=F
 Integral buffers will be    131072 words long.
 Raffenetti 2 integral format.
 Two-electron integral symmetry is turned off.
 One-electron integrals computed using PRISM.
 NBasis=   252 RedAO= T EigKep=  1.31D-03  NBF=   252
 NBsUse=   252 1.00D-06 EigRej= -1.00D+00 NBFU=   252
 ExpMin= 1.17D-01 ExpMax= 2.19D+04 ExpMxC= 3.30D+03 IAcc=1 IRadAn=         1 AccDes= 0.00D+00
 Harris functional with IExCor=  402 and IRadAn=       1 diagonalized for initial guess.
 HarFok:  IExCor=  402 AccDes= 0.00D+00 IRadAn=         1 IDoV= 1 UseB2=F ITyADJ=14
 ICtDFT=  3500011 ScaDFX=  1.000000  1.000000  1.000000  1.000000
 FoFCou: FMM=F IPFlag=           0 FMFlag=      100000 FMFlg1=           0
         NFxFlg=           0 DoJE=T BraDBF=F KetDBF=T FulRan=T
         wScrn=  0.000000 ICntrl=     500 IOpCl=  0 I1Cent=   200000004 NGrid=           0
         NMat0=    1 NMatS0=      1 NMatT0=    0 NMatD0=    1 NMtDS0=    0 NMtDT0=    0
 Symmetry not used in FoFCou.
 Keep R1 ints in memory in canonical form, NReq=516431061.
 Requested convergence on RMS density matrix=1.00D-08 within 128 cycles.
 Requested convergence on MAX density matrix=1.00D-06.
 Requested convergence on             energy=1.00D-06.
 No special actions if energy rises.
 Integral accuracy reduced to 1.0D-05 until final iterations.
 EnCoef did     4 forward-backward iterations
 EnCoef did     2 forward-backward iterations
 Initial convergence to 1.0D-05 achieved.  Increase integral accuracy.
 SCF Done:  E(RB3LYP) =  -1350.88259181     A.U. after   19 cycles
            NFock= 19  Conv=0.31D-08     -V/T= 2.0059

 **********************************************************************

            Population analysis using the SCF density.

 **********************************************************************

 Alpha  occ. eigenvalues --  -88.99601 -88.73959 -19.09137 -14.36761 -14.35360
 Alpha  occ. eigenvalues --  -14.30055 -10.29091 -10.26769 -10.24867 -10.24194
 Alpha  occ. eigenvalues --  -10.24036 -10.23519 -10.17550 -10.14807  -8.05460
 Alpha  occ. eigenvalues --   -7.79941  -6.01735  -6.01692  -6.01141  -5.76551
 Alpha  occ. eigenvalues --   -5.75772  -5.75681  -1.02599  -0.95619  -0.92929
 Alpha  occ. eigenvalues --   -0.89618  -0.85910  -0.76321  -0.75129  -0.74352
 Alpha  occ. eigenvalues --   -0.67134  -0.64929  -0.63998  -0.63385  -0.54985
 Alpha  occ. eigenvalues --   -0.54169  -0.52123  -0.50988  -0.49582  -0.49378
 Alpha  occ. eigenvalues --   -0.49059  -0.47999  -0.45230  -0.44633  -0.43512
 Alpha  occ. eigenvalues --   -0.43176  -0.42549  -0.41280  -0.41003  -0.40630
 Alpha  occ. eigenvalues --   -0.39274  -0.36478  -0.35659  -0.35618  -0.34550
 Alpha  occ. eigenvalues --   -0.32184  -0.26079  -0.25876  -0.24939  -0.24139
 Alpha  occ. eigenvalues --   -0.21582  -0.12946  -0.12513
 Alpha virt. eigenvalues --   -0.01823  -0.01460  -0.00946   0.03157   0.03803
 Alpha virt. eigenvalues --    0.06555   0.07758   0.08433   0.09945   0.11092
 Alpha virt. eigenvalues --    0.11743   0.12359   0.12983   0.13982   0.14402
 Alpha virt. eigenvalues --    0.14545   0.16406   0.16790   0.17405   0.18708
 Alpha virt. eigenvalues --    0.20243   0.21141   0.22096   0.23078   0.26460
 Alpha virt. eigenvalues --    0.26825   0.31381   0.31496   0.32508   0.33545
 Alpha virt. eigenvalues --    0.34098   0.36438   0.36619   0.39613   0.41788
 Alpha virt. eigenvalues --    0.42206   0.43075   0.44646   0.47311   0.48407
 Alpha virt. eigenvalues --    0.50213   0.51179   0.52633   0.53782   0.54461
 Alpha virt. eigenvalues --    0.56173   0.58167   0.59102   0.59758   0.60307
 Alpha virt. eigenvalues --    0.61100   0.62063   0.63219   0.64722   0.65092
 Alpha virt. eigenvalues --    0.65922   0.66317   0.67553   0.69501   0.69674
 Alpha virt. eigenvalues --    0.71226   0.72344   0.72930   0.74844   0.76095
 Alpha virt. eigenvalues --    0.76777   0.79059   0.80596   0.81638   0.83090
 Alpha virt. eigenvalues --    0.83691   0.84216   0.85253   0.85952   0.86522
 Alpha virt. eigenvalues --    0.87273   0.87887   0.88569   0.89176   0.89455
 Alpha virt. eigenvalues --    0.89990   0.90743   0.92346   0.92983   0.94054
 Alpha virt. eigenvalues --    0.94394   0.95312   0.97316   0.97947   0.98260
 Alpha virt. eigenvalues --    0.99379   1.00240   1.02015   1.02562   1.03818
 Alpha virt. eigenvalues --    1.04472   1.07423   1.09170   1.11082   1.15188
 Alpha virt. eigenvalues --    1.16317   1.18097   1.19876   1.21901   1.24601
 Alpha virt. eigenvalues --    1.25627   1.29335   1.31048   1.32705   1.35714
 Alpha virt. eigenvalues --    1.36557   1.39735   1.40699   1.43834   1.44076
 Alpha virt. eigenvalues --    1.47514   1.51181   1.56261   1.57783   1.61209
 Alpha virt. eigenvalues --    1.64405   1.65462   1.68605   1.70499   1.71754
 Alpha virt. eigenvalues --    1.73789   1.76611   1.77355   1.77671   1.78127
 Alpha virt. eigenvalues --    1.82032   1.86089   1.86260   1.88516   1.92712
 Alpha virt. eigenvalues --    1.95430   1.97731   1.98750   2.02458   2.03967
 Alpha virt. eigenvalues --    2.08520   2.13969   2.15558   2.16106   2.16691
 Alpha virt. eigenvalues --    2.18301   2.19073   2.20191   2.21185   2.22086
 Alpha virt. eigenvalues --    2.22573   2.23198   2.24889   2.26874   2.28937
 Alpha virt. eigenvalues --    2.29655   2.30351   2.31082   2.34761   2.41995
 Alpha virt. eigenvalues --    2.45570   2.46863   2.53138   2.60996   2.64545
 Alpha virt. eigenvalues --    2.66949   2.70026   2.72743   2.76149   2.80857
 Alpha virt. eigenvalues --    2.84749   3.02039   3.03618   3.23554   3.42066
 Alpha virt. eigenvalues --    3.82211   3.83231   3.98422   4.02866   4.06147
 Alpha virt. eigenvalues --    4.14374   4.17410   4.20725   4.22828   4.25510
 Alpha virt. eigenvalues --    4.28783   4.32287   4.54567   4.59930
          Condensed to atoms (all electrons):
               1          2          3          4          5          6
     1  C    4.205188  -0.025995  -0.027976   0.267834   0.000708   0.002424
     2  C   -0.025995   5.060373   0.572554  -0.024121   0.355062  -0.033739
     3  C   -0.027976   0.572554   4.665901   0.327622  -0.038357   0.372055
     4  N    0.267834  -0.024121   0.327622   7.018723   0.003809  -0.043631
     5  H    0.000708   0.355062  -0.038357   0.003809   0.574419  -0.004177
     6  H    0.002424  -0.033739   0.372055  -0.043631  -0.004177   0.524604
     7  O    0.532217   0.000954   0.001696  -0.098819   0.000007  -0.000111
     8  N    0.368725  -0.056793  -0.018642  -0.104998   0.004209  -0.000249
     9  C   -0.029126   0.448231  -0.016334  -0.021262  -0.032614   0.004130
    10  N    0.002480  -0.089376   0.003638   0.000182  -0.004444  -0.000125
    11  H   -0.000252   0.007680  -0.000117   0.000050  -0.000252   0.000004
    12  H   -0.000150  -0.002160   0.000176   0.000024   0.002512   0.000003
    13  H   -0.013009   0.004047  -0.026827   0.285633  -0.000107  -0.006141
    14  S    0.000065  -0.000011   0.000001   0.000083  -0.000001   0.000000
    15  C   -0.000202  -0.000002  -0.000008   0.000213   0.000000   0.000000
    16  H    0.000006  -0.000000   0.000000   0.000002  -0.000000  -0.000000
    17  H    0.001874   0.000013   0.000022  -0.001480  -0.000000  -0.000003
    18  H   -0.000004   0.000000  -0.000000  -0.000001  -0.000000   0.000000
    19  C   -0.004339   0.000125  -0.000083  -0.000336  -0.000000   0.000001
    20  H    0.001586  -0.000735   0.000651  -0.000872  -0.000003  -0.000004
    21  H    0.001526   0.000059  -0.000039   0.000588  -0.000001   0.000001
    22  H    0.000343   0.000003  -0.000002   0.000000  -0.000000   0.000000
    23  C   -0.000024  -0.000004   0.000020  -0.000017   0.000000   0.000000
    24  H    0.000000   0.000000  -0.000000  -0.000000  -0.000000  -0.000000
    25  H    0.000000   0.000000  -0.000000   0.000000  -0.000000  -0.000000
    26  H    0.000012   0.000023  -0.000084   0.000022  -0.000000  -0.000001
    27  C   -0.000138   0.000129  -0.000086  -0.002065   0.000002   0.000919
    28  H   -0.000367   0.000057  -0.000712   0.000706   0.000001   0.000198
    29  H    0.000015   0.000019  -0.000509   0.000129  -0.000003   0.000796
    30  H    0.000004  -0.000004   0.000086   0.000009   0.000000  -0.000029
    31  S    0.005974  -0.012265   0.031074  -0.026402   0.000433  -0.003688
               7          8          9         10         11         12
     1  C    0.532217   0.368725  -0.029126   0.002480  -0.000252  -0.000150
     2  C    0.000954  -0.056793   0.448231  -0.089376   0.007680  -0.002160
     3  C    0.001696  -0.018642  -0.016334   0.003638  -0.000117   0.000176
     4  N   -0.098819  -0.104998  -0.021262   0.000182   0.000050   0.000024
     5  H    0.000007   0.004209  -0.032614  -0.004444  -0.000252   0.002512
     6  H   -0.000111  -0.000249   0.004130  -0.000125   0.000004   0.000003
     7  O    8.196926  -0.083712   0.000523  -0.000057  -0.000022   0.000001
     8  N   -0.083712   7.104866   0.450284  -0.091612   0.008751   0.004328
     9  C    0.000523   0.450284   4.405877   0.319314  -0.012729  -0.019882
    10  N   -0.000057  -0.091612   0.319314   7.019654   0.292669   0.311831
    11  H   -0.000022   0.008751  -0.012729   0.292669   0.392302  -0.024251
    12  H    0.000001   0.004328  -0.019882   0.311831  -0.024251   0.394589
    13  H    0.010069   0.006000   0.000448   0.000020  -0.000002  -0.000001
    14  S   -0.002631   0.001588   0.000022  -0.000006   0.000004   0.000000
    15  C   -0.011928  -0.000117   0.000013  -0.000000  -0.000000   0.000000
    16  H    0.000125  -0.000003   0.000000  -0.000000  -0.000000   0.000000
    17  H    0.031409   0.000138  -0.000036   0.000000   0.000000  -0.000000
    18  H    0.000300  -0.000001   0.000000   0.000000   0.000000  -0.000000
    19  C   -0.002534  -0.003127  -0.000341  -0.000003   0.000056   0.000000
    20  H   -0.002113   0.004224   0.001465  -0.000063  -0.000036   0.000004
    21  H    0.017025  -0.000459   0.000429  -0.000083   0.000078   0.000002
    22  H    0.000230  -0.000340  -0.000013   0.000025   0.000007   0.000000
    23  C    0.000022   0.000011  -0.000013   0.000000  -0.000000  -0.000000
    24  H    0.000000  -0.000001   0.000000  -0.000000   0.000000  -0.000000
    25  H   -0.000000  -0.000000   0.000000  -0.000000   0.000000   0.000000
    26  H   -0.000020  -0.000042   0.000019  -0.000000   0.000000  -0.000000
    27  C   -0.000007   0.000000   0.000001  -0.000000   0.000000   0.000000
    28  H   -0.000002   0.000003  -0.000005   0.000000   0.000000  -0.000000
    29  H   -0.000000  -0.000000   0.000001  -0.000000   0.000000  -0.000000
    30  H   -0.000000   0.000000  -0.000000   0.000000  -0.000000  -0.000000
    31  S   -0.000495  -0.000198  -0.000861  -0.000014  -0.000005   0.000002
              13         14         15         16         17         18
     1  C   -0.013009   0.000065  -0.000202   0.000006   0.001874  -0.000004
     2  C    0.004047  -0.000011  -0.000002  -0.000000   0.000013   0.000000
     3  C   -0.026827   0.000001  -0.000008   0.000000   0.000022  -0.000000
     4  N    0.285633   0.000083   0.000213   0.000002  -0.001480  -0.000001
     5  H   -0.000107  -0.000001   0.000000  -0.000000  -0.000000  -0.000000
     6  H   -0.006141   0.000000   0.000000  -0.000000  -0.000003   0.000000
     7  O    0.010069  -0.002631  -0.011928   0.000125   0.031409   0.000300
     8  N    0.006000   0.001588  -0.000117  -0.000003   0.000138  -0.000001
     9  C    0.000448   0.000022   0.000013   0.000000  -0.000036   0.000000
    10  N    0.000020  -0.000006  -0.000000  -0.000000   0.000000   0.000000
    11  H   -0.000002   0.000004  -0.000000  -0.000000   0.000000   0.000000
    12  H   -0.000001   0.000000   0.000000   0.000000  -0.000000  -0.000000
    13  H    0.377752  -0.000011  -0.000109  -0.000001   0.000674  -0.000001
    14  S   -0.000011  15.070806   0.247999  -0.032672  -0.028466  -0.030977
    15  C   -0.000109   0.247999   5.387466   0.365808   0.328779   0.356398
    16  H   -0.000001  -0.032672   0.365808   0.486816  -0.017208  -0.021729
    17  H    0.000674  -0.028466   0.328779  -0.017208   0.407423  -0.012507
    18  H   -0.000001  -0.030977   0.356398  -0.021729  -0.012507   0.499722
    19  C    0.000034   0.225301  -0.027149  -0.000027  -0.002696   0.002285
    20  H   -0.000021  -0.032431  -0.002014  -0.000052   0.002534  -0.000033
    21  H   -0.000045  -0.026865  -0.001294   0.001118  -0.001390   0.000143
    22  H   -0.000000  -0.036170   0.002458  -0.000029   0.000146  -0.000052
    23  C    0.000002   0.229640  -0.034475   0.002069  -0.002713  -0.001890
    24  H   -0.000000  -0.031044   0.002462  -0.000058   0.000015   0.000059
    25  H   -0.000000  -0.030651  -0.001154   0.000004  -0.000061   0.002239
    26  H   -0.000005  -0.018454  -0.001975   0.000101   0.002772  -0.000329
    27  C    0.002886  -0.000045  -0.000055   0.000001   0.000183   0.000005
    28  H    0.008472   0.000018   0.000120  -0.000003  -0.000236  -0.000012
    29  H   -0.000163   0.000002  -0.000001   0.000000   0.000005   0.000000
    30  H   -0.000174  -0.000031   0.000008  -0.000000  -0.000006   0.000006
    31  S   -0.002894   0.004181  -0.000711   0.000061   0.003962   0.000077
              19         20         21         22         23         24
     1  C   -0.004339   0.001586   0.001526   0.000343  -0.000024   0.000000
     2  C    0.000125  -0.000735   0.000059   0.000003  -0.000004   0.000000
     3  C   -0.000083   0.000651  -0.000039  -0.000002   0.000020  -0.000000
     4  N   -0.000336  -0.000872   0.000588   0.000000  -0.000017  -0.000000
     5  H   -0.000000  -0.000003  -0.000001  -0.000000   0.000000  -0.000000
     6  H    0.000001  -0.000004   0.000001   0.000000   0.000000  -0.000000
     7  O   -0.002534  -0.002113   0.017025   0.000230   0.000022   0.000000
     8  N   -0.003127   0.004224  -0.000459  -0.000340   0.000011  -0.000001
     9  C   -0.000341   0.001465   0.000429  -0.000013  -0.000013   0.000000
    10  N   -0.000003  -0.000063  -0.000083   0.000025   0.000000  -0.000000
    11  H    0.000056  -0.000036   0.000078   0.000007  -0.000000   0.000000
    12  H    0.000000   0.000004   0.000002   0.000000  -0.000000  -0.000000
    13  H    0.000034  -0.000021  -0.000045  -0.000000   0.000002  -0.000000
    14  S    0.225301  -0.032431  -0.026865  -0.036170   0.229640  -0.031044
    15  C   -0.027149  -0.002014  -0.001294   0.002458  -0.034475   0.002462
    16  H   -0.000027  -0.000052   0.001118  -0.000029   0.002069  -0.000058
    17  H   -0.002696   0.002534  -0.001390   0.000146  -0.002713   0.000015
    18  H    0.002285  -0.000033   0.000143  -0.000052  -0.001890   0.000059
    19  C    5.426722   0.345901   0.347807   0.355139  -0.035322  -0.000334
    20  H    0.345901   0.431675  -0.015626  -0.017833  -0.004253  -0.000148
    21  H    0.347807  -0.015626   0.430039  -0.014566   0.001624   0.000007
    22  H    0.355139  -0.017833  -0.014566   0.508916   0.000312   0.000895
    23  C   -0.035322  -0.004253   0.001624   0.000312   5.597971   0.355370
    24  H   -0.000334  -0.000148   0.000007   0.000895   0.355370   0.497859
    25  H    0.002515   0.000233  -0.000060  -0.000044   0.351798  -0.020907
    26  H   -0.003196   0.004693   0.000132  -0.000008   0.231035  -0.009612
    27  C    0.000022  -0.000111  -0.000000  -0.000000   0.000395   0.000004
    28  H    0.000014  -0.000064  -0.000000  -0.000000   0.000059  -0.000001
    29  H   -0.000000   0.000003   0.000000   0.000000  -0.000030   0.000000
    30  H   -0.000002   0.000009  -0.000000   0.000000   0.000249  -0.000002
    31  S   -0.005522   0.016320   0.000025   0.000173  -0.074955   0.001772
              25         26         27         28         29         30
     1  C    0.000000   0.000012  -0.000138  -0.000367   0.000015   0.000004
     2  C    0.000000   0.000023   0.000129   0.000057   0.000019  -0.000004
     3  C   -0.000000  -0.000084  -0.000086  -0.000712  -0.000509   0.000086
     4  N    0.000000   0.000022  -0.002065   0.000706   0.000129   0.000009
     5  H   -0.000000  -0.000000   0.000002   0.000001  -0.000003   0.000000
     6  H   -0.000000  -0.000001   0.000919   0.000198   0.000796  -0.000029
     7  O   -0.000000  -0.000020  -0.000007  -0.000002  -0.000000  -0.000000
     8  N   -0.000000  -0.000042   0.000000   0.000003  -0.000000   0.000000
     9  C    0.000000   0.000019   0.000001  -0.000005   0.000001  -0.000000
    10  N   -0.000000  -0.000000  -0.000000   0.000000  -0.000000   0.000000
    11  H    0.000000   0.000000   0.000000   0.000000   0.000000  -0.000000
    12  H    0.000000  -0.000000   0.000000  -0.000000  -0.000000  -0.000000
    13  H   -0.000000  -0.000005   0.002886   0.008472  -0.000163  -0.000174
    14  S   -0.030651  -0.018454  -0.000045   0.000018   0.000002  -0.000031
    15  C   -0.001154  -0.001975  -0.000055   0.000120  -0.000001   0.000008
    16  H    0.000004   0.000101   0.000001  -0.000003   0.000000  -0.000000
    17  H   -0.000061   0.002772   0.000183  -0.000236   0.000005  -0.000006
    18  H    0.002239  -0.000329   0.000005  -0.000012   0.000000   0.000006
    19  C    0.002515  -0.003196   0.000022   0.000014  -0.000000  -0.000002
    20  H    0.000233   0.004693  -0.000111  -0.000064   0.000003   0.000009
    21  H   -0.000060   0.000132  -0.000000  -0.000000   0.000000  -0.000000
    22  H   -0.000044  -0.000008  -0.000000  -0.000000   0.000000   0.000000
    23  C    0.351798   0.231035   0.000395   0.000059  -0.000030   0.000249
    24  H   -0.020907  -0.009612   0.000004  -0.000001   0.000000  -0.000002
    25  H    0.506470  -0.009085  -0.000021  -0.000004   0.000001  -0.000004
    26  H   -0.009085   0.407735  -0.001492  -0.000248   0.000203  -0.000817
    27  C   -0.000021  -0.001492   5.190972   0.346872   0.368712   0.371052
    28  H   -0.000004  -0.000248   0.346872   0.698758  -0.045631  -0.043160
    29  H    0.000001   0.000203   0.368712  -0.045631   0.632257  -0.040932
    30  H   -0.000004  -0.000817   0.371052  -0.043160  -0.040932   0.620655
    31  S    0.001711   0.117515   0.254222  -0.061926  -0.051892  -0.047137
              31
     1  C    0.005974
     2  C   -0.012265
     3  C    0.031074
     4  N   -0.026402
     5  H    0.000433
     6  H   -0.003688
     7  O   -0.000495
     8  N   -0.000198
     9  C   -0.000861
    10  N   -0.000014
    11  H   -0.000005
    12  H    0.000002
    13  H   -0.002894
    14  S    0.004181
    15  C   -0.000711
    16  H    0.000061
    17  H    0.003962
    18  H    0.000077
    19  C   -0.005522
    20  H    0.016320
    21  H    0.000025
    22  H    0.000173
    23  C   -0.074955
    24  H    0.001772
    25  H    0.001711
    26  H    0.117515
    27  C    0.254222
    28  H   -0.061926
    29  H   -0.051892
    30  H   -0.047137
    31  S   16.437587
 Mulliken charges:
               1
     1  C    0.710600
     2  C   -0.204124
     3  C    0.154279
     4  N   -0.581625
     5  H    0.138797
     6  H    0.186764
     7  O   -0.589053
     8  N   -0.592834
     9  C    0.502457
    10  N   -0.764030
    11  H    0.336067
    12  H    0.332972
    13  H    0.353476
    14  S    0.490759
    15  C   -0.610531
    16  H    0.215672
    17  H    0.286852
    18  H    0.206303
    19  C   -0.620910
    20  H    0.267117
    21  H    0.259824
    22  H    0.200411
    23  C   -0.616885
    24  H    0.203662
    25  H    0.197021
    26  H    0.281107
    27  C   -0.532353
    28  H    0.097093
    29  H    0.137018
    30  H    0.140219
    31  S   -0.586126
 Sum of Mulliken charges =  -0.00000
 Mulliken charges with hydrogens summed into heavy atoms:
               1
     1  C    0.710600
     2  C   -0.065326
     3  C    0.341043
     4  N   -0.228149
     7  O   -0.589053
     8  N   -0.592834
     9  C    0.502457
    10  N   -0.094991
    14  S    0.490759
    15  C    0.098296
    19  C    0.106442
    23  C    0.064905
    27  C   -0.158023
    31  S   -0.586126
 Electronic spatial extent (au):  <R**2>=           4089.2418
 Charge=             -0.0000 electrons
 Dipole moment (field-independent basis, Debye):
    X=              4.8800    Y=             -1.6998    Z=             -3.6202  Tot=              6.3095
 Quadrupole moment (field-independent basis, Debye-Ang):
   XX=            -80.3857   YY=           -100.0815   ZZ=            -96.7591
   XY=            -13.8018   XZ=             20.7466   YZ=             12.4464
 Traceless Quadrupole moment (field-independent basis, Debye-Ang):
   XX=             12.0231   YY=             -7.6728   ZZ=             -4.3503
   XY=            -13.8018   XZ=             20.7466   YZ=             12.4464
 Octapole moment (field-independent basis, Debye-Ang**2):
  XXX=             21.2441  YYY=            -10.7278  ZZZ=            -94.8340  XYY=             11.6914
  XXY=              3.6096  XXZ=            -22.0383  XZZ=              6.2030  YZZ=             -5.4086
  YYZ=              0.2461  XYZ=            -21.7575
 Hexadecapole moment (field-independent basis, Debye-Ang**3):
 XXXX=          -2175.9899 YYYY=           -970.0130 ZZZZ=          -1858.7231 XXXY=            289.1354
 XXXZ=            -58.2434 YYYX=            213.8527 YYYZ=            136.7129 ZZZX=              4.5928
 ZZZY=            200.2280 XXYY=           -560.0351 XXZZ=           -644.5111 YYZZ=           -528.0452
 XXYZ=             90.3161 YYXZ=            -38.8791 ZZXY=             72.7767
 N-N= 1.172462999335D+03 E-N=-5.527206442918D+03  KE= 1.342952469206D+03
 Calling FoFJK, ICntrl=      2127 FMM=F ISym2X=0 I1Cent= 0 IOpClX= 0 NMat=1 NMatS=1 NMatT=0.
 -------------------------------------------------------------------
 Center     Atomic                   Forces (Hartrees/Bohr)
 Number     Number              X              Y              Z
 -------------------------------------------------------------------
      1        6          -0.000062984   -0.000006474   -0.000345633
      2        6          -0.000183863    0.000235274   -0.000407166
      3        6          -0.000094285    0.000075146   -0.000331295
      4        7           0.000004905   -0.000161239   -0.000231955
      5        1          -0.000020165    0.000031707   -0.000039908
      6        1          -0.000000126   -0.000006802   -0.000022100
      7        8          -0.000054182   -0.000146039   -0.000460034
      8        7          -0.000215928    0.000218289   -0.000538221
      9        6          -0.000225925    0.000309301   -0.000501784
     10        7          -0.000453218    0.000637490   -0.000739644
     11        1          -0.000032374    0.000040554   -0.000052656
     12        1          -0.000034614    0.000052770   -0.000050515
     13        1           0.000004712   -0.000029146   -0.000014517
     14       16          -0.000441357    0.000241418    0.000957631
     15        6          -0.000550758    0.000106315    0.000415435
     16        1          -0.000127435    0.000018140    0.000022339
     17        1          -0.000036449   -0.000051204    0.000096524
     18        1           0.000000056    0.000017468   -0.000003601
     19        6          -0.000648632   -0.000229086    0.000715947
     20        1          -0.000026772    0.000003276    0.000085971
     21        1          -0.000061198   -0.000052988    0.000034359
     22        1          -0.000082492   -0.000027156    0.000094966
     23        6           0.000506367   -0.000321205    0.000634942
     24        1           0.000068968   -0.000028107    0.000056991
     25        1           0.000059389   -0.000004351    0.000031835
     26        1           0.000040145   -0.000057668    0.000066678
     27        6           0.000718369   -0.000194917    0.000261523
     28        1          -0.000097515   -0.000081921    0.000026752
     29        1           0.000190104   -0.000117381    0.000085655
     30        1           0.000101928    0.000062773   -0.000135317
     31       16           0.001755328   -0.000534237    0.000286799
 -------------------------------------------------------------------
 Cartesian Forces:  Max     0.001755328 RMS     0.000335148

 GradGradGradGradGradGradGradGradGradGradGradGradGradGradGradGradGradGrad
 Berny optimization.
 FormGI is forming the generalized inverse of G from B-inverse, IUseBI=4.
 Internal  Forces:  Max     0.007495228 RMS     0.001578722
 Search for a local minimum.
 Step number   1 out of a maximum of  155
 All quantities printed in internal units (Hartrees-Bohrs-Radians)
 Mixed Optimization -- RFO/linear search
 Second derivative matrix not updated -- first step.
 ITU=  0
     Eigenvalues ---    0.00230   0.00230   0.00230   0.00230   0.00230
     Eigenvalues ---    0.00451   0.01023   0.01377   0.01752   0.01972
     Eigenvalues ---    0.02046   0.02076   0.02136   0.02225   0.02381
     Eigenvalues ---    0.02407   0.02454   0.02770   0.03008   0.03208
     Eigenvalues ---    0.03472   0.03657   0.05037   0.05788   0.06053
     Eigenvalues ---    0.06596   0.06915   0.07520   0.07559   0.07734
     Eigenvalues ---    0.08111   0.09098   0.09614   0.10688   0.11217
     Eigenvalues ---    0.11459   0.12259   0.12430   0.13526   0.13812
     Eigenvalues ---    0.14134   0.14657   0.14881   0.15839   0.15898
     Eigenvalues ---    0.15947   0.16000   0.16000   0.16000   0.16000
     Eigenvalues ---    0.16000   0.16000   0.21237   0.21540   0.22836
     Eigenvalues ---    0.23036   0.23540   0.23959   0.24011   0.24166
     Eigenvalues ---    0.24787   0.24972   0.31047   0.32982   0.33894
     Eigenvalues ---    0.33972   0.34082   0.34420   0.34444   0.34593
     Eigenvalues ---    0.34618   0.34626   0.34630   0.34715   0.35685
     Eigenvalues ---    0.35888   0.39817   0.43321   0.45138   0.45782
     Eigenvalues ---    0.46050   0.48046   0.50793   0.51454   0.51794
     Eigenvalues ---    0.57645   0.86863
 RFO step:  Lambda=-7.14880466D-03 EMin= 2.30000000D-03
 Linear search not attempted -- first point.
 Iteration  1 RMS(Cart)=  0.34372848 RMS(Int)=  0.01383886
 Iteration  2 RMS(Cart)=  0.03372828 RMS(Int)=  0.00107297
 Iteration  3 RMS(Cart)=  0.00045421 RMS(Int)=  0.00106417
 Iteration  4 RMS(Cart)=  0.00000055 RMS(Int)=  0.00106417
 Variable       Old X    -DE/DX   Delta X   Delta X   Delta X     New X
                                 (Linear)    (Quad)   (Total)
    R1        2.65754  -0.00078   0.00000  -0.00187  -0.00187   2.65567
    R2        2.34021   0.00012   0.00000   0.00063   0.00050   2.34071
    R3        2.57988   0.00069   0.00000   0.00119   0.00115   2.58103
    R4        2.58224   0.00055   0.00000   0.00117   0.00121   2.58345
    R5        2.04577   0.00001   0.00000   0.00002   0.00002   2.04578
    R6        2.68629   0.00012   0.00000   0.00119   0.00120   2.68749
    R7        2.57115   0.00028   0.00000  -0.00011  -0.00010   2.57105
    R8        2.04256  -0.00002   0.00000  -0.00004  -0.00004   2.04252
    R9        1.91335   0.00136   0.00000   0.00260   0.00264   1.91600
   R10        4.18191   0.00191   0.00000   0.05239   0.05282   4.23474
   R11        2.51713   0.00022   0.00000   0.00091   0.00088   2.51801
   R12        2.59074   0.00029   0.00000   0.00056   0.00056   2.59129
   R13        1.91078   0.00002   0.00000   0.00004   0.00004   1.91082
   R14        1.90775   0.00004   0.00000   0.00008   0.00008   1.90782
   R15        4.26750   0.00172   0.00000   0.06792   0.06758   4.33508
   R16        3.45259  -0.00001   0.00000  -0.00060  -0.00021   3.45238
   R17        3.45492  -0.00023   0.00000  -0.00095  -0.00095   3.45397
   R18        3.45067  -0.00099   0.00000  -0.00531  -0.00489   3.44578
   R19        2.06286  -0.00009   0.00000  -0.00026  -0.00026   2.06260
   R20        2.06534   0.00056   0.00000   0.00240   0.00263   2.06797
   R21        2.06342  -0.00000   0.00000  -0.00001  -0.00001   2.06340
   R22        2.06300   0.00005   0.00000   0.00015   0.00015   2.06316
   R23        2.06140  -0.00007   0.00000  -0.00020  -0.00020   2.06120
   R24        2.06279  -0.00005   0.00000  -0.00013  -0.00013   2.06266
   R25        2.06627  -0.00001   0.00000  -0.00003  -0.00003   2.06624
   R26        2.06587   0.00006   0.00000   0.00017   0.00017   2.06604
   R27        2.11835  -0.00140   0.00000  -0.00521  -0.00539   2.11295
   R28        4.42887  -0.00134   0.00000  -0.04212  -0.04228   4.38660
   R29        2.08588   0.00030   0.00000   0.00186   0.00133   2.08721
   R30        2.07510  -0.00019   0.00000  -0.00055  -0.00055   2.07455
   R31        2.07377  -0.00009   0.00000  -0.00025  -0.00025   2.07351
   R32        3.48290  -0.00057   0.00000  -0.00200  -0.00235   3.48056
    A1        2.07276  -0.00229   0.00000  -0.01108  -0.01236   2.06041
    A2        2.04813   0.00037   0.00000   0.00047   0.00049   2.04862
    A3        2.16217   0.00193   0.00000   0.01139   0.01150   2.17366
    A4        2.11604  -0.00003   0.00000   0.00040   0.00036   2.11640
    A5        2.02613   0.00022   0.00000   0.00126   0.00128   2.02741
    A6        2.13327  -0.00017   0.00000  -0.00029  -0.00031   2.13296
    A7        2.08441  -0.00008   0.00000  -0.00408  -0.00420   2.08022
    A8        2.15550  -0.00002   0.00000   0.00072   0.00063   2.15613
    A9        2.03942   0.00004   0.00000   0.00138   0.00133   2.04074
   A10        2.12724  -0.00021   0.00000   0.00113   0.00107   2.12832
   A11        1.99482  -0.00197   0.00000  -0.01386  -0.01483   1.97999
   A12        2.06933   0.00244   0.00000   0.02741   0.02793   2.09726
   A13        2.01064   0.00750   0.00000   0.04585   0.04542   2.05606
   A14        2.08106  -0.00002   0.00000  -0.00129  -0.00143   2.07963
   A15        2.16579  -0.00040   0.00000  -0.00047  -0.00054   2.16524
   A16        2.09166   0.00006   0.00000   0.00005   0.00004   2.09170
   A17        2.02409   0.00036   0.00000   0.00121   0.00119   2.02529
   A18        2.01469   0.00000   0.00000  -0.00033  -0.00033   2.01436
   A19        2.06955  -0.00003   0.00000  -0.00052  -0.00052   2.06903
   A20        2.02841  -0.00003   0.00000  -0.00058  -0.00059   2.02782
   A21        2.35801   0.00697   0.00000   0.05661   0.05784   2.41586
   A22        1.78437   0.00024   0.00000  -0.00071  -0.00090   1.78347
   A23        1.78606   0.00020   0.00000   0.00679   0.00841   1.79447
   A24        1.77051  -0.00017   0.00000  -0.00427  -0.00450   1.76601
   A25        1.86605   0.00063   0.00000   0.00026  -0.00058   1.86547
   A26        1.91709   0.00450   0.00000   0.03082   0.03254   1.94963
   A27        1.87068  -0.00280   0.00000  -0.01143  -0.01156   1.85913
   A28        1.91706  -0.00261   0.00000  -0.01654  -0.01729   1.89977
   A29        1.92586   0.00028   0.00000  -0.00505  -0.00501   1.92085
   A30        1.96404   0.00011   0.00000   0.00251   0.00221   1.96625
   A31        2.38750  -0.00086   0.00000  -0.00225  -0.00351   2.38399
   A32        1.88644  -0.00014   0.00000  -0.00108  -0.00108   1.88536
   A33        1.89168   0.00009   0.00000   0.00070   0.00070   1.89238
   A34        1.87484  -0.00000   0.00000   0.00005   0.00005   1.87489
   A35        1.90440   0.00000   0.00000  -0.00008  -0.00008   1.90432
   A36        1.95364  -0.00000   0.00000  -0.00036  -0.00036   1.95328
   A37        1.95059   0.00005   0.00000   0.00075   0.00075   1.95134
   A38        1.85688   0.00069   0.00000  -0.00040  -0.00249   1.85439
   A39        1.86750   0.00020   0.00000   0.00861   0.01257   1.88007
   A40        1.93446  -0.00164   0.00000  -0.01679  -0.01309   1.92137
   A41        1.91028  -0.00017   0.00000   0.00077  -0.00121   1.90907
   A42        1.93294   0.00026   0.00000   0.00141  -0.00083   1.93211
   A43        1.95794   0.00066   0.00000   0.00632   0.00502   1.96296
   A44        1.87068  -0.00072   0.00000  -0.00454  -0.00423   1.86645
   A45        1.85882  -0.00013   0.00000  -0.00937  -0.00926   1.84956
   A46        1.97656   0.00151   0.00000   0.03232   0.03133   2.00788
   A47        1.86549   0.00002   0.00000  -0.00585  -0.00594   1.85955
   A48        1.93628   0.00079   0.00000   0.00081   0.00070   1.93698
   A49        1.95000  -0.00155   0.00000  -0.01529  -0.01481   1.93519
   A50        2.13703   0.00488   0.00000   0.05249   0.05212   2.18914
   A51        1.93819  -0.00166   0.00000  -0.00132  -0.00109   1.93710
   A52        3.21756  -0.00022   0.00000  -0.16937  -0.16589   3.05167
   A53        2.97358  -0.00030   0.00000  -0.08333  -0.08635   2.88723
    D1       -2.84945  -0.00104   0.00000  -0.04256  -0.04200  -2.89145
    D2       -0.16212   0.00019   0.00000  -0.00152  -0.00095  -0.16307
    D3        0.27544   0.00017   0.00000   0.00675   0.00699   0.28243
    D4        2.96277   0.00140   0.00000   0.04780   0.04804   3.01081
    D5        1.31198  -0.00445   0.00000  -0.06089  -0.05966   1.25233
    D6       -1.81173  -0.00573   0.00000  -0.11352  -0.11234  -1.92407
    D7       -0.13083   0.00065   0.00000   0.01534   0.01508  -0.11575
    D8        2.99312   0.00188   0.00000   0.06717   0.06731   3.06043
    D9       -3.12371   0.00073   0.00000   0.02057   0.02056  -3.10316
   D10       -0.07939  -0.00002   0.00000  -0.00428  -0.00436  -0.08375
   D11        0.14849   0.00054   0.00000   0.00909   0.00894   0.15743
   D12       -3.09037  -0.00021   0.00000  -0.01576  -0.01598  -3.10635
   D13       -0.01225   0.00031   0.00000   0.01269   0.01277   0.00052
   D14        3.06509   0.00069   0.00000   0.02807   0.02817   3.09326
   D15       -3.02182   0.00011   0.00000   0.00103   0.00097  -3.02085
   D16        0.05551   0.00049   0.00000   0.01641   0.01638   0.07189
   D17       -0.28680  -0.00075   0.00000  -0.01871  -0.01872  -0.30552
   D18       -2.95560  -0.00090   0.00000  -0.05087  -0.05132  -3.00692
   D19        2.94569  -0.00005   0.00000   0.00452   0.00458   2.95026
   D20        0.27688  -0.00020   0.00000  -0.02764  -0.02802   0.24886
   D21       -1.86024   0.00197   0.00000   0.04424   0.04445  -1.81579
   D22        0.84323   0.00246   0.00000   0.07695   0.07746   0.92069
   D23        2.20087  -0.00124   0.00000   0.15423   0.15665   2.35752
   D24        0.00692  -0.00096   0.00000  -0.02541  -0.02528  -0.01836
   D25       -3.07267  -0.00132   0.00000  -0.04022  -0.04012  -3.11279
   D26        2.89924  -0.00022   0.00000  -0.00833  -0.00834   2.89090
   D27        0.37380  -0.00011   0.00000  -0.00582  -0.00584   0.36796
   D28       -0.30154   0.00011   0.00000   0.00578   0.00580  -0.29574
   D29       -2.82699   0.00022   0.00000   0.00829   0.00831  -2.81868
   D30       -0.28160   0.00368   0.00000   0.04019   0.04030  -0.24130
   D31       -1.52002  -0.00160   0.00000  -0.12372  -0.12383  -1.64386
   D32        0.55927  -0.00189   0.00000  -0.12644  -0.12687   0.43239
   D33        2.69809  -0.00082   0.00000  -0.11212  -0.11189   2.58620
   D34        2.93429  -0.00155   0.00000  -0.12091  -0.12117   2.81312
   D35       -1.26960  -0.00183   0.00000  -0.12362  -0.12421  -1.39381
   D36        0.86922  -0.00076   0.00000  -0.10930  -0.10923   0.76000
   D37       -1.33458  -0.00011   0.00000  -0.00007  -0.00086  -1.33544
   D38        0.72724  -0.00013   0.00000  -0.00037  -0.00117   0.72608
   D39        2.83758  -0.00002   0.00000   0.00094   0.00015   2.83773
   D40        0.50639   0.00013   0.00000   0.00573   0.00653   0.51292
   D41        2.56822   0.00010   0.00000   0.00542   0.00622   2.57444
   D42       -1.60463   0.00021   0.00000   0.00674   0.00754  -1.59710
   D43        2.99706   0.00022   0.00000  -0.00229  -0.00216   2.99490
   D44       -1.24531   0.00046   0.00000   0.00258   0.00133  -1.24398
   D45        0.89447   0.00040   0.00000   0.00574   0.00761   0.90208
   D46        1.15742  -0.00005   0.00000  -0.00216  -0.00218   1.15524
   D47       -3.08496   0.00020   0.00000   0.00270   0.00131  -3.08364
   D48       -0.94517   0.00014   0.00000   0.00586   0.00759  -0.93758
   D49       -1.44224  -0.00367   0.00000  -0.19667  -0.19543  -1.63767
   D50        0.60548  -0.00179   0.00000  -0.18789  -0.18737   0.41811
   D51        2.75840  -0.00326   0.00000  -0.20479  -0.20476   2.55364
   D52       -1.50977   0.00058   0.00000  -0.09363  -0.08861  -1.59839
   D53        2.76488   0.00069   0.00000  -0.03122  -0.03134   2.73355
   D54        0.66652   0.00000   0.00000  -0.10817  -0.11363   0.55289
   D55       -1.46706   0.00131   0.00000   0.12509   0.12480  -1.34226
   D56        2.82431   0.00168   0.00000   0.13831   0.13778   2.96210
   D57        0.67416   0.00277   0.00000   0.14368   0.14327   0.81743
   D58        1.22418   0.00086   0.00000   0.06092   0.06028   1.28447
   D59       -2.95459   0.00156   0.00000   0.07820   0.07774  -2.87685
   D60       -0.87483   0.00109   0.00000   0.06125   0.06111  -0.81372
         Item               Value     Threshold  Converged?
 Maximum Force            0.007495     0.000450     NO 
 RMS     Force            0.001579     0.000300     NO 
 Maximum Displacement     1.011990     0.001800     NO 
 RMS     Displacement     0.362897     0.001200     NO 
 Predicted change in Energy=-5.045521D-03
 GradGradGradGradGradGradGradGradGradGradGradGradGradGradGradGradGradGrad

                          Input orientation:                          
 ---------------------------------------------------------------------
 Center     Atomic      Atomic             Coordinates (Angstroms)
 Number     Number       Type             X           Y           Z
 ---------------------------------------------------------------------
      1          6           0       -0.272602    1.530872   -1.132522
      2          6           0       -2.855957    0.559014   -1.569278
      3          6           0       -2.546833    1.177001   -0.389658
      4          7           0       -1.342484    1.796724   -0.260976
      5          1           0       -3.818071    0.086336   -1.720596
      6          1           0       -3.249591    1.299561    0.422350
      7          8           0        0.857341    1.916081   -0.802219
      8          7           0       -0.562022    0.896783   -2.307104
      9          6           0       -1.798428    0.444804   -2.513275
     10          7           0       -2.009437   -0.212141   -3.698279
     11          1           0       -1.304520   -0.064212   -4.407967
     12          1           0       -2.957578   -0.320210   -4.027812
     13          1           0       -1.048832    2.157458    0.639931
     14         16           0        3.009443   -1.324842    0.616591
     15          6           0        2.881725    0.440239    1.070260
     16          1           0        3.602242    0.979255    0.452489
     17          1           0        1.880979    0.837161    0.874042
     18          1           0        3.163577    0.511482    2.122752
     19          6           0        1.697076   -1.495076   -0.644132
     20          1           0        0.735258   -1.526081   -0.128459
     21          1           0        1.726377   -0.618660   -1.292785
     22          1           0        1.892630   -2.415532   -1.197233
     23          6           0        2.242293   -2.165199    2.041433
     24          1           0        2.150609   -3.218426    1.762417
     25          1           0        2.925729   -2.072767    2.889775
     26          1           0        1.237112   -1.723228    2.252337
     27          6           0       -1.241686    0.469546    3.196068
     28          1           0       -0.820061    1.408870    2.796279
     29          1           0       -2.312745    0.644596    3.361482
     30          1           0       -0.790566    0.333805    4.187044
     31         16           0       -0.971378   -1.016896    2.142613
 ---------------------------------------------------------------------
                    Distance matrix (angstroms):
                    1          2          3          4          5
     1  C    0.000000
     2  C    2.794456   0.000000
     3  C    2.418512   1.367102   0.000000
     4  N    1.405317   2.352484   1.360541   0.000000
     5  H    3.873353   1.082583   2.139391   3.344316   0.000000
     6  H    3.366540   2.161004   1.080854   2.085944   2.527311
     7  O    1.238652   4.027231   3.507826   2.268572   5.104004
     8  N    1.365824   2.433232   2.773914   2.367627   3.406270
     9  C    2.326835   1.422161   2.367693   2.666162   2.199045
    10  N    3.554968   2.417420   3.628427   4.036758   2.696567
    11  H    3.786514   3.294469   4.385289   4.545554   3.682739
    12  H    4.360998   2.612997   3.955568   4.612916   2.495791
    13  H    2.033896   3.271289   2.065275   1.013901   4.186923
    14  S    4.688957   6.536808   6.176080   5.427115   7.353150
    15  C    3.998938   6.316823   5.669517   4.632082   7.266456
    16  H    4.222673   6.780301   6.209625   5.062372   7.783357
    17  H    3.024144   5.337203   4.617136   3.549612   6.306747
    18  H    4.841828   7.061738   6.274067   5.257243   7.980945
    19  C    3.643421   5.079890   5.021505   4.496852   5.837506
    20  H    3.371778   4.395498   4.259929   3.921174   5.086019
    21  H    2.939743   4.739320   4.722326   4.039384   5.605439
    22  H    4.501836   5.615641   5.767782   5.393112   6.256625
    23  C    5.482667   6.815477   6.325839   5.817951   7.479992
    24  H    6.066997   7.101756   6.783596   6.437978   7.660155
    25  H    6.276497   7.761270   7.159931   6.566418   8.449620
    26  H    4.932106   6.047031   5.450661   5.035983   6.679340
    27  C    4.560946   5.032136   3.880893   3.704418   5.564008
    28  H    3.968637   4.891341   3.631212   3.125727   5.580262
    29  H    5.014354   4.961330   3.795959   3.923138   5.329650
    30  H    5.477138   6.119788   4.974099   4.714831   6.642833
    31  S    4.207841   4.451210   3.702383   3.719062   4.923938
                    6          7          8          9         10
     6  H    0.000000
     7  O    4.329729   0.000000
     8  N    3.851646   2.306130   0.000000
     9  C    3.384431   3.485036   1.332476   0.000000
    10  N    4.561009   4.597272   2.293489   1.371254   0.000000
    11  H    5.382856   4.647217   2.426611   2.023092   1.011162
    12  H    4.744773   5.473486   3.190705   2.054921   1.009575
    13  H    2.372060   2.402406   3.242114   3.665759   5.035656
    14  S    6.789752   4.141032   5.122399   6.003610   6.711584
    15  C    6.225050   3.127686   4.845040   5.894537   6.862071
    16  H    6.859382   3.160130   4.996324   6.184548   7.080907
    17  H    5.171130   2.240927   4.011421   5.016562   6.094464
    18  H    6.681404   3.980839   5.801049   6.791074   7.821004
    19  C    5.780734   3.516552   3.686460   4.413091   4.971114
    20  H    4.915960   3.509606   3.507093   3.998912   4.690779
    21  H    5.601921   2.724113   2.926121   3.878763   4.461835
    22  H    6.547321   4.471100   4.269492   4.851536   5.131890
    23  C    6.692293   5.163458   6.012462   6.624568   7.405129
    24  H    7.167297   5.883286   6.391738   6.877186   7.494193
    25  H    7.456229   5.815493   6.927495   7.605838   8.439209
    26  H    5.711095   4.766456   5.557863   6.051935   6.945019
    27  C    3.523367   4.741801   5.561419   5.736477   6.970376
    28  H    3.398544   4.002515   5.135498   5.484340   6.798645
    29  H    3.153594   5.385399   5.938140   5.900611   7.118020
    30  H    4.599175   5.487435   6.522510   6.776605   7.997626
    31  S    3.676348   4.540771   4.861042   4.949533   5.986753
                   11         12         13         14         15
    11  H    0.000000
    12  H    1.715416   0.000000
    13  H    5.521094   5.618717   0.000000
    14  S    6.741339   7.627916   5.347575   0.000000
    15  C    6.913037   7.788843   4.310835   1.826920   0.000000
    16  H    6.984925   8.049407   4.801644   2.384786   1.091479
    17  H    6.233738   6.984219   3.222077   2.452340   1.094322
    18  H    7.933827   8.717207   4.759452   2.379993   1.091905
    19  C    5.022291   5.873279   4.746560   1.827761   2.843936
    20  H    4.961043   5.504191   4.164356   2.401565   3.148120
    21  H    4.381565   5.432208   4.375387   2.406380   2.835503
    22  H    5.104830   5.993920   5.739305   2.393080   3.778262
    23  C    7.654332   8.202340   5.610800   1.823430   2.853131
    24  H    7.743424   8.247423   6.355826   2.374063   3.794659
    25  H    8.671006   9.248663   6.225250   2.394529   3.102865
    26  H    7.319281   7.681416   4.783839   2.444491   2.963553
    27  C    7.623004   7.466755   3.069214   5.286363   4.639228
    28  H    7.369249   7.357100   2.294026   5.185492   4.197691
    29  H    7.866592   7.479861   3.360516   6.303872   5.681019
    30  H    8.619558   8.521006   3.996801   5.471683   4.817820
    31  S    6.627873   6.519548   3.512916   4.274402   4.256710
                   16         17         18         19         20
    16  H    0.000000
    17  H    1.777820   0.000000
    18  H    1.789139   1.819452   0.000000
    19  C    3.309766   2.788907   3.719213   0.000000
    20  H    3.851468   2.811156   3.887975   1.091775   0.000000
    21  H    3.019633   2.615044   3.874101   1.090740   1.778028
    22  H    4.143542   3.856207   4.604891   1.091514   1.809120
    23  C    3.776479   3.241530   2.831960   2.821096   2.718098
    24  H    4.630732   4.160493   3.881772   2.994512   2.905626
    25  H    3.963947   3.690849   2.706148   3.785738   3.769186
    26  H    4.017052   2.978230   2.953301   2.941624   2.441088
    27  C    5.590230   3.908706   4.534326   5.219501   4.352391
    28  H    5.023414   3.364144   4.138637   5.158033   4.425725
    29  H    6.600100   4.879730   5.616251   6.058201   5.116820
    30  H    5.801747   4.285616   4.464092   5.733535   4.940736
    31  S    5.268695   3.630805   4.408422   3.887833   2.886112
                   21         22         23         24         25
    21  H    0.000000
    22  H    1.807075   0.000000
    23  C    3.711463   3.267092   0.000000
    24  H    4.033982   3.077454   1.093409   0.000000
    25  H    4.587666   4.229470   1.093304   1.784456   0.000000
    26  H    3.745309   3.578900   1.118127   1.819373   1.838459
    27  C    5.490300   6.119535   4.518094   5.211925   4.891270
    28  H    5.226440   6.158968   4.766736   5.595143   5.114829
    29  H    6.290670   6.916029   5.512336   6.115675   5.920150
    30  H    6.104975   6.614291   4.477377   5.210343   4.613604
    31  S    4.386164   4.616633   3.414164   3.839021   4.106161
                   26         27         28         29         30
    26  H    0.000000
    27  C    3.441413   0.000000
    28  H    3.786538   1.104504   0.000000
    29  H    4.408886   1.097803   1.769654   0.000000
    30  H    3.476485   1.097255   1.758085   1.759311   0.000000
    31  S    2.321286   1.841831   2.516847   2.458752   2.456987
                   31
    31  S    0.000000
 Symmetry turned off by external request.
 Stoichiometry    C8H17N3OS2
 Framework group  C1[X(C8H17N3OS2)]
 Deg. of freedom    87
 Full point group                 C1      NOp   1
 Rotational constants (GHZ):      0.5944367      0.3215442      0.2630462
 Standard basis: 6-31G(d) (6D, 7F)
   252 basis functions,   508 primitive gaussians,   252 cartesian basis functions
    63 alpha electrons       63 beta electrons
       nuclear repulsion energy      1143.3114432436 Hartrees.
 NAtoms=   31 NActive=   31 NUniq=   31 SFac= 1.00D+00 NAtFMM=   60 NAOKFM=F Big=F
 Integral buffers will be    131072 words long.
 Raffenetti 2 integral format.
 Two-electron integral symmetry is turned off.
 One-electron integrals computed using PRISM.
 NBasis=   252 RedAO= T EigKep=  1.35D-03  NBF=   252
 NBsUse=   252 1.00D-06 EigRej= -1.00D+00 NBFU=   252
 Initial guess from the checkpoint file:  "/localscratch/enas93.61778912.0/Gau-35024.chk"
 B after Tr=     0.034688   -0.014063   -0.014300
         Rot=    0.999962   -0.006768   -0.001305   -0.005367 Ang=  -1.00 deg.
 ExpMin= 1.17D-01 ExpMax= 2.19D+04 ExpMxC= 3.30D+03 IAcc=1 IRadAn=         1 AccDes= 0.00D+00
 Harris functional with IExCor=  402 and IRadAn=       1 diagonalized for initial guess.
 HarFok:  IExCor=  402 AccDes= 0.00D+00 IRadAn=         1 IDoV= 1 UseB2=F ITyADJ=14
 ICtDFT=  3500011 ScaDFX=  1.000000  1.000000  1.000000  1.000000
 FoFCou: FMM=F IPFlag=           0 FMFlag=      100000 FMFlg1=           0
         NFxFlg=           0 DoJE=T BraDBF=F KetDBF=T FulRan=T
         wScrn=  0.000000 ICntrl=     500 IOpCl=  0 I1Cent=   200000004 NGrid=           0
         NMat0=    1 NMatS0=      1 NMatT0=    0 NMatD0=    1 NMtDS0=    0 NMtDT0=    0
 Symmetry not used in FoFCou.
 Keep R1 ints in memory in canonical form, NReq=516431061.
 Requested convergence on RMS density matrix=1.00D-08 within 128 cycles.
 Requested convergence on MAX density matrix=1.00D-06.
 Requested convergence on             energy=1.00D-06.
 No special actions if energy rises.
 Integral accuracy reduced to 1.0D-05 until final iterations.
 Initial convergence to 1.0D-05 achieved.  Increase integral accuracy.
 SCF Done:  E(RB3LYP) =  -1350.88365282     A.U. after   15 cycles
            NFock= 15  Conv=0.68D-08     -V/T= 2.0059
 Calling FoFJK, ICntrl=      2127 FMM=F ISym2X=0 I1Cent= 0 IOpClX= 0 NMat=1 NMatS=1 NMatT=0.
 -------------------------------------------------------------------
 Center     Atomic                   Forces (Hartrees/Bohr)
 Number     Number              X              Y              Z
 -------------------------------------------------------------------
      1        6           0.007252666    0.005990575   -0.002583288
      2        6          -0.002071149   -0.002054062    0.009567662
      3        6          -0.000128599    0.007292593   -0.008097119
      4        7          -0.002907714   -0.007115161    0.005268500
      5        1          -0.000153779   -0.000127622   -0.000001704
      6        1          -0.000139113   -0.001277000    0.001892161
      7        8          -0.002987779   -0.005019534   -0.001787766
      8        7          -0.003849135   -0.002386564   -0.000074378
      9        6           0.009737291    0.000523764   -0.005897854
     10        7          -0.001322754    0.002179543    0.001961260
     11        1           0.000532204   -0.000549139    0.000294228
     12        1          -0.000095870   -0.000278907   -0.000090194
     13        1          -0.002198525   -0.001567848    0.000754518
     14       16          -0.003033709    0.001864302   -0.000483583
     15        6           0.001415938    0.002600907    0.000813467
[...]
 00000035,-0.00000312,0.00000499,0.00000363,0.00000226,-0.00000078,-0.0
 0002922,-0.00003740,-0.00024585,-0.02267824,-0.01504429,-0.01319184,0.
 00047082,-0.00063488,0.00206105,0.00003319,0.00063614,-0.00036736,-0.0
 0003067,-0.00025034,-0.00017085,-0.00015198,0.00030732,-0.00008580,0.0
 0081259,0.00198137,-0.00761915,0.00074982,0.00023350,0.00001943,-0.001
 77088,-0.00200658,0.00038559,0.00008331,-0.00016395,-0.00007569,-0.073
 03601,-0.04638254,-0.07361892,0.00818518,0.00374781,0.00431277,0.07971
 606,0.04976386,0.08250157,0.00203363,-0.00088507,-0.00060386,-0.000083
 97,-0.00000237,0.00055079,-0.00072484,0.00033682,-0.00018737,0.0003828
 3,-0.00026015,0.00247029,0.00002662,-0.00001472,0.00004498,-0.00018501
 ,0.00008696,-0.00016568,-0.00145660,0.00060659,-0.00008137,-0.00048803
 ,0.00020393,0.00020679,0.00031120,-0.00011388,-0.00060028,0.00006409,0
 .00003505,0.00034369,0.00000838,-0.00003339,-0.00002985,-0.00002950,-0
 .00000944,-0.00003022,-0.00035477,0.00021588,-0.00304192,0.00473198,-0
 .00182937,-0.00190017,-0.00127731,-0.00062175,0.00018009,-0.00020605,0
 .00003724,0.00016397,0.00041991,0.00022211,0.00019830,0.00167328,0.000
 06100,-0.00057766,0.00064300,0.00071081,0.00001959,0.00066429,-0.00104
 418,-0.00114168,-0.00005281,-0.00038589,0.00023980,-0.00026233,0.00008
 321,0.00011158,-0.24345792,0.08604842,0.07398561,0.00298900,-0.0019244
 3,-0.00193898,-0.01476761,0.00900000,0.00708538,0.24879626,-0.00097121
 ,0.00044399,0.00028967,0.00003921,-0.00000736,-0.00026664,0.00034673,-
 0.00015911,0.00009292,-0.00014550,0.00019824,-0.00118355,-0.00001261,0
 .00000748,-0.00002158,0.00008766,-0.00005039,0.00008025,0.00063199,-0.
 00044462,0.00002542,0.00023281,-0.00010492,-0.00009969,-0.00014510,0.0
 0006946,0.00029042,-0.00003559,-0.00002627,-0.00016714,-0.00000197,0.0
 0002021,0.00001506,0.00001615,0.00000776,0.00001511,0.00007396,-0.0003
 0347,0.00145000,-0.00328979,0.00199387,0.00294089,-0.00082655,0.000746
 61,0.00013080,0.00015692,-0.00014076,-0.00003610,0.00001633,-0.0001139
 5,-0.00020533,-0.00057248,-0.00018416,0.00084555,0.00079275,-0.0012249
 0,-0.00063985,-0.00052130,0.00090174,0.00000114,-0.00017050,0.00027904
 ,-0.00001992,0.00001173,-0.00007867,-0.00011016,0.08612663,-0.09339096
 ,-0.03447110,0.02430667,-0.00838157,-0.01068487,-0.01570785,0.00805361
 ,0.00777327,-0.08928449,0.09284361,0.00007332,-0.00003007,-0.00003209,
 -0.00003132,0.00001055,0.00004680,0.00000629,-0.00000077,-0.00004455,-
 0.00003702,0.00001999,0.00003009,-0.00000041,0.00000021,-0.00000047,-0
 .00002352,0.00001039,-0.00000646,-0.00010182,0.00003444,0.00007501,-0.
 00004081,0.00001857,-0.00000169,0.00004707,-0.00001841,-0.00003989,-0.
 00000296,0.00000412,0.00002184,0.00000339,-0.00000389,-0.00000154,-0.0
 0000112,-0.00000003,-0.00000242,-0.00002076,0.00000137,-0.00003137,0.0
 2292275,-0.00895263,-0.02968630,0.00003842,-0.00173792,0.00303515,-0.0
 0008280,0.00004517,0.00001651,-0.00015221,-0.00061297,0.00011919,0.000
 03965,0.00136531,-0.00018542,0.00131320,0.00062582,0.00307597,-0.00122
 649,-0.00079381,-0.00038800,0.00034895,0.00049951,0.00019331,-0.000097
 30,0.00002344,0.00000100,0.07351867,-0.03417652,-0.07227005,-0.0089349
 9,0.00261921,0.00447506,-0.01025983,0.00618291,0.00579670,-0.07802943,
 0.03516358,0.08822455,-0.00073069,0.00023954,0.00112311,-0.00039794,0.
 00016991,-0.00045400,0.00171340,-0.00069976,-0.00060018,-0.00244869,0.
 00149231,-0.00347240,-0.00008390,0.00004548,-0.00012334,0.00007552,0.0
 0007353,0.00015167,0.00042231,0.00003548,-0.00046863,-0.00020354,0.000
 11870,-0.00073021,0.00027080,-0.00011457,0.00068420,-0.00028578,-0.000
 01460,-0.00051819,0.00001435,0.00003793,0.00005831,0.00006447,0.000037
 56,0.00001776,0.00295479,-0.00215123,0.00470840,-0.00019341,-0.0005842
 6,-0.00037444,-0.00080326,-0.00048301,0.00091806,-0.00017495,0.0001555
 5,0.00018829,-0.00040168,0.00003984,0.00012251,0.00027491,0.00080947,-
 0.00081773,0.00112243,-0.00134020,-0.00073651,-0.00100395,0.00167888,0
 .00054462,-0.00007724,0.00017292,0.00013378,0.00044973,-0.00021670,-0.
 00019871,-0.00021889,0.00051181,-0.00049263,-0.00021985,0.00008141,0.0
 0008128,-0.00000548,0.00000551,0.00008721,-0.00031988,-0.00037962,0.00
 078933,0.44365317,0.00037702,-0.00019055,-0.00055699,0.00015073,-0.000
 18150,0.00023433,-0.00075433,0.00041540,0.00028720,0.00141780,-0.00038
 970,0.00180080,0.00004510,-0.00001311,0.00006030,0.00008484,0.00019980
 ,-0.00006178,-0.00005009,0.00043091,0.00025901,0.00005049,-0.00011124,
 0.00035301,-0.00010171,0.00007364,-0.00034174,0.00012663,-0.00000447,0
 .00025269,-0.00000631,-0.00001711,-0.00002735,-0.00002315,-0.00000342,
 -0.00000727,-0.00211930,0.00005933,-0.00243270,-0.00059969,-0.00116637
 ,0.00012072,-0.00289243,-0.00044987,0.00149932,-0.00073078,0.00037096,
 0.00040323,-0.00005445,0.00010947,-0.00005759,0.00266558,0.00106165,-0
 .00110210,0.00111566,-0.00208677,-0.00191410,-0.00029357,0.00215778,0.
 00170112,0.00033115,-0.00023528,-0.00007768,0.00065473,-0.00019477,-0.
 00037929,0.00055030,0.00050897,0.00031150,-0.00015215,0.00006907,-0.00
 005466,0.00027517,-0.00014347,-0.00005021,-0.00040318,-0.00080039,-0.0
 0049477,0.03887391,0.51724882,-0.00113761,0.00049853,0.00031932,-0.000
 18026,0.00008149,-0.00022440,0.00007011,-0.00000934,-0.00028576,-0.001
 48866,0.00084496,-0.00221573,-0.00001336,0.00000987,-0.00004280,-0.000
 24069,0.00014048,-0.00021389,0.00090550,-0.00039564,0.00002972,0.00033
 284,-0.00015305,-0.00007038,-0.00021093,0.00008598,0.00021187,0.000015
 27,-0.00001093,-0.00005034,-0.00000168,0.00000623,0.00000183,-0.000006
 04,0.00000086,0.00000902,0.00348401,-0.00184095,0.00224144,0.00035242,
 -0.00021213,-0.00059061,-0.00051397,-0.00002681,0.00112611,-0.00011494
 ,0.00003289,0.00007680,-0.00041472,0.00000733,0.00000263,0.00095375,0.
 00043272,-0.00148886,-0.00020277,0.00004116,0.00095019,0.00024982,-0.0
 0057890,-0.00140945,-0.00024596,0.00030596,0.00002404,-0.00001833,0.00
 003157,0.00003050,-0.00115260,0.00062810,-0.00061483,-0.00024459,0.000
 14685,0.00020333,-0.00026110,0.00006841,0.00020241,0.00127526,-0.00071
 888,0.00099226,0.08705428,-0.03760729,0.45311569,-0.00021040,0.0001475
 7,-0.00012527,0.00003850,-0.00002775,0.00005661,-0.00022107,0.00011610
 ,0.00001484,0.00014672,-0.00013284,0.00028769,0.00001458,-0.00000262,0
 .00000892,-0.00001052,-0.00000212,-0.00010561,0.00018345,-0.00019694,0
 .00012913,0.00013175,-0.00008358,0.00015798,-0.00010106,0.00006208,-0.
 00009183,0.00005670,-0.00001268,0.00009742,-0.00000225,-0.00000218,-0.
 00001030,-0.00000969,-0.00000253,-0.00000176,0.00001766,0.00011386,-0.
 00055362,0.00026796,0.00017274,-0.00012888,0.00030449,0.00000131,-0.00
 014052,0.00002593,-0.00003000,-0.00000883,-0.00001393,-0.00000103,-0.0
 0003286,-0.00011954,-0.00000095,0.00004186,-0.00020629,0.00053524,0.00
 054181,0.00013241,-0.00070260,-0.00061692,-0.00011871,0.00007665,-0.00
 001658,-0.00020923,0.00006979,0.00011403,-0.00035460,-0.00001047,-0.00
 011110,0.00000133,0.00000974,0.00003870,-0.00012995,0.00004807,0.00004
 499,0.00049229,0.00001197,0.00025611,-0.05113289,0.04086350,-0.0106828
 0,0.05421907,0.00024166,-0.00015755,0.00015280,-0.00013564,0.00007858,
 0.00005032,0.00049883,-0.00022892,-0.00027962,-0.00035939,0.00023707,-
 0.00040067,-0.00002321,0.00000167,-0.00002988,-0.00003037,-0.00004976,
 0.00001936,-0.00025761,0.00016832,-0.00013834,-0.00018836,0.00011468,-
 0.00017705,0.00018503,-0.00010447,0.00003693,-0.00006800,0.00002479,-0
 .00006334,0.00000459,-0.00000132,0.00001092,0.00000743,0.00000085,-0.0
 0000640,0.00018925,-0.00012944,0.00077478,-0.00010558,-0.00002249,0.00
 005177,0.00001351,-0.00001223,-0.00002621,0.00002394,-0.00000299,-0.00
 001276,0.00003749,-0.00000829,0.00003510,-0.00020404,-0.00000036,0.000
 12345,0.00000301,-0.00018134,-0.00010947,-0.00008516,0.00026783,0.0001
 5822,0.00005270,-0.00004535,0.00003880,0.00008962,-0.00002881,-0.00005
 535,0.00006481,0.00001232,0.00004885,0.00000685,-0.00001053,-0.0000191
 2,0.00004161,-0.00001335,-0.00001885,-0.00018961,0.00004637,-0.0000760
 9,0.03422496,-0.30485725,0.02773880,-0.04019070,0.32575967,0.00057047,
 -0.00029818,-0.00004699,-0.00014437,0.00008462,0.00017082,0.00022075,-
 0.00008216,-0.00026373,-0.00002965,0.00022699,0.00019074,-0.00000804,-
 0.00000296,-0.00000957,-0.00015056,-0.00004592,-0.00005384,-0.00043796
 ,0.00031006,-0.00011982,-0.00022183,0.00011020,-0.00007365,0.00019246,
 -0.00009925,-0.00012408,-0.00003074,0.00002716,0.00004931,0.00000362,-
 0.00001139,0.00000064,-0.00000486,-0.00000098,-0.00001285,-0.00012438,
 -0.00046591,0.00007414,-0.00019698,-0.00017540,0.00006535,-0.00027985,
 -0.00006539,0.00009481,-0.00004837,0.00003612,0.00002007,0.00005914,0.
 00000387,0.00004145,0.00005347,0.00011026,0.00009520,0.00031801,-0.000
 55665,-0.00054348,-0.00025731,0.00075044,0.00060661,0.00012072,-0.0001
 0332,0.00003597,0.00019547,-0.00007447,-0.00011646,0.00022005,0.000064
 88,0.00011320,0.00000167,-0.00001068,-0.00003942,0.00009876,-0.0000383
 1,-0.00003691,-0.00031652,-0.00006911,-0.00020524,-0.00903426,0.020137
 35,-0.04706230,0.00361764,-0.02736186,0.05122478,-0.00039735,0.0001398
 0,-0.00020052,0.00015297,-0.00005430,-0.00001897,-0.00057113,0.0002232
 5,0.00025427,0.00044844,-0.00014414,0.00048706,0.00002064,-0.00001903,
 0.00002929,-0.00002154,-0.00004126,-0.00005086,0.00042121,-0.00010360,
 0.00020592,0.00025844,-0.00011934,0.00024218,-0.00024861,0.00007340,-0
 .00007935,0.00011371,0.00001111,0.00011167,-0.00001016,-0.00001029,-0.
 00001813,-0.00002272,-0.00001872,0.00000130,-0.00015995,0.00007368,-0.
 00101014,0.00007028,-0.00027338,-0.00014904,-0.00051073,-0.00024871,0.
 00040039,-0.00019486,0.00010762,0.00012507,-0.00013942,0.00004229,-0.0
 0004727,0.00066034,0.00035887,-0.00046601,0.00011948,-0.00014644,-0.00
 008438,0.00005216,-0.00005199,-0.00006790,-0.00002640,0.00003320,-0.00
 004921,0.00001312,0.00001087,0.00000613,-0.00015617,0.00023871,-0.0000
 9768,-0.00010756,0.00006019,0.00004512,-0.00001806,-0.00000893,0.00003
 955,0.00030582,-0.00036515,0.00020838,-0.23983516,-0.11497410,-0.04661
 758,0.00601955,0.00186651,0.00048278,0.25640268,-0.00002737,0.00002025
 ,0.00000630,0.00007527,-0.00002080,-0.00009318,-0.00016326,0.00006389,
 0.00019037,0.00012224,-0.00004734,0.00000705,0.00000147,-0.00000351,0.
 00001254,-0.00000479,-0.00004604,0.00007868,0.00001873,-0.00005357,-0.
 00001012,0.00003494,-0.00001434,-0.00000713,-0.00005737,0.00002015,0.0
 0006034,0.00000324,-0.00000534,-0.00004141,-0.00000092,0.00000383,0.00
 000094,0.00000151,-0.00000113,0.00000602,-0.00011982,0.00005968,-0.000
 02075,-0.00000367,0.00015880,0.00007861,0.00030331,0.00009088,-0.00028
 710,0.00008466,-0.00004756,-0.00004728,0.00004838,-0.00002258,-0.00001
 341,-0.00028321,-0.00021178,0.00029550,-0.00015316,0.00014890,0.000125
 70,0.00014486,-0.00014854,-0.00013315,-0.00001577,0.00001021,0.0000010
 4,-0.00003601,0.00000832,0.00001140,0.00013847,-0.00016882,0.00003768,
 0.00006291,-0.00003368,-0.00002068,-0.00000160,0.00000539,-0.00001475,
 -0.00012022,0.00021715,-0.00012057,-0.10882759,-0.11112353,-0.01919597
 ,-0.02872865,-0.01509768,-0.00676616,0.11977015,0.11726583,0.00059354,
 -0.00023456,-0.00005056,-0.00016105,0.00003328,0.00017023,0.00019544,-
 0.00008146,-0.00024808,-0.00017346,-0.00015265,0.00020944,-0.00000208,
 0.00000603,-0.00000702,-0.00000970,0.00015794,-0.00012781,-0.00050893,
 0.00013891,-0.00012436,-0.00021729,0.00010286,-0.00006470,0.00020250,-
 0.00006290,-0.00012356,-0.00003849,0.00000834,0.00005034,0.00000704,-0
 .00000299,0.00000195,-0.00000038,0.00000557,-0.00001099,0.00017659,0.0
 0031267,0.00021516,0.00000653,0.00026282,0.00009382,0.00067955,0.00015
 815,-0.00051117,0.00019131,-0.00009455,-0.00012095,0.00015105,-0.00003
 247,0.00003994,-0.00078219,-0.00034223,0.00054277,-0.00014485,0.000253
 81,0.00012491,-0.00003172,-0.00013567,0.00005384,0.00002823,-0.0000503
 4,0.00003803,-0.00006150,0.00001426,0.00001892,0.00008711,-0.00022641,
 0.00009741,0.00009403,-0.00004908,-0.00003715,0.00001191,0.00000854,-0
 .00003834,-0.00013388,0.00031156,-0.00018700,-0.03905951,-0.01594848,-
 0.05189484,0.00331755,0.00254492,0.00086091,0.04278391,0.02509622,0.05
 744833,0.00029325,-0.00011769,-0.00040191,0.00022337,-0.00010746,0.000
 11974,-0.00075484,0.00032486,0.00037476,0.00106331,-0.00054720,0.00156
 257,0.00003329,-0.00001876,0.00005403,0.00003813,-0.00004032,-0.000001
 23,-0.00011049,0.00004228,0.00018734,0.00008333,-0.00005933,0.00030364
 ,-0.00013946,0.00005827,-0.00023120,0.00011208,-0.00000014,0.00017251,
 -0.00000648,-0.00001193,-0.00002278,-0.00001987,-0.00001296,-0.0000033
 5,-0.00143906,0.00074620,-0.00211273,0.00005818,-0.00002508,0.00008440
 ,-0.00015881,-0.00006306,-0.00016643,-0.00008554,0.00002608,0.00004258
 ,0.00011134,0.00001836,-0.00004420,0.00027061,0.00000429,0.00020842,-0
 .00001785,0.00015520,-0.00012383,0.00010776,-0.00018474,0.00013220,0.0
 0004577,-0.00008947,-0.00004289,-0.00006927,0.00003522,0.00003223,0.00
 001139,-0.00003708,0.00014567,0.00002259,-0.00000671,-0.00003195,-0.00
 000850,-0.00000084,-0.00002154,0.00001210,0.00009031,-0.00001853,-0.06
 910097,0.01294423,-0.07748257,-0.00124438,0.00008985,-0.00381843,-0.00
 829390,0.00701689,-0.02672128,0.07844636,-0.00013801,0.00003231,0.0001
 6630,-0.00009706,0.00005293,-0.00004550,0.00032781,-0.00013069,-0.0001
 6830,-0.00043589,0.00030026,-0.00068952,-0.00001639,0.00000371,-0.0000
 2378,-0.00004161,-0.00003424,-0.00000204,0.00005054,-0.00001403,-0.000
 07738,-0.00003310,0.00002795,-0.00012858,0.00005575,-0.00003519,0.0000
 9065,-0.00004380,0.00000441,-0.00006755,0.00000306,0.00000439,0.000008
 82,0.00000630,0.00000393,0.00000026,0.00058855,-0.00041655,0.00091939,
 -0.00001670,0.00002447,-0.00003854,0.00001556,0.00003296,0.00004059,0.
 00001688,-0.00001177,-0.00000197,-0.00003432,-0.00001549,0.00000774,-0
 .00002324,-0.00001293,-0.00000931,0.00004381,-0.00010347,0.00008777,-0
 .00010069,0.00014167,-0.00015687,-0.00003541,0.00004426,0.00002780,0.0
 0004037,-0.00002847,-0.00003022,-0.00003428,-0.00002546,-0.00006551,0.
 00002173,-0.00001564,0.00000117,-0.00003494,0.00001304,0.00002449,0.00
 007413,0.00012294,0.00004131,0.01339832,-0.05994552,0.04941498,0.01130
 663,-0.00567093,0.03144935,-0.00565300,0.00399512,-0.01634809,-0.01937
 579,0.05984576,-0.00026079,0.00009055,0.00047734,-0.00010385,0.0000693
 6,-0.00030684,0.00053169,-0.00023746,-0.00004206,-0.00075898,0.0004135
 1,-0.00109548,-0.00002946,0.00001387,-0.00003926,0.00000727,-0.0000051
 0,-0.00000551,0.00012039,-0.00004165,-0.00023679,-0.00007676,0.0000606
 3,-0.00033045,0.00007713,-0.00004134,0.00041094,-0.00014237,-0.0000109
 5,-0.00029925,0.00000744,0.00002283,0.00003235,0.00003573,0.00001619,0
 .00001618,0.00110239,-0.00062084,0.00171224,-0.00008240,0.00004094,-0.
 00002901,0.00017497,0.00008051,0.00006848,0.00009921,-0.00003906,-0.00
 004701,-0.00008602,-0.00002640,0.00004180,-0.00035353,-0.00007358,-0.0
 0002919,0.00004743,-0.00020004,0.00005439,-0.00016658,0.00033020,-0.00
 001906,-0.00003677,0.00007924,0.00004907,0.00009727,-0.00004854,-0.000
 04959,0.00014321,-0.00006357,-0.00012637,0.00002690,-0.00002805,-0.000
 00487,0.00003619,-0.00000204,-0.00000185,-0.00033184,0.00016155,0.0000
 6817,-0.08597847,0.05347878,-0.27581965,-0.00163550,0.00117686,-0.0014
 8488,-0.00274587,0.00133739,-0.00407356,0.08556678,-0.05448165,0.29475
 157,-0.00590676,0.00267310,0.00005901,0.00072918,-0.00020349,-0.001104
 93,0.00149826,-0.00079127,0.00134242,0.00376076,0.00017187,-0.00818757
 ,-0.00002234,-0.00001893,-0.00001550,0.00081599,-0.00062539,0.00074238
 ,0.00355179,-0.00154463,0.00120703,0.00145112,-0.00064765,-0.00034407,
 -0.00084327,0.00028262,0.00104629,0.00001104,-0.00005086,-0.00058549,-
 0.00003477,0.00004522,0.00004030,0.00003372,-0.00000340,0.00006245,-0.
 00918026,0.00215140,0.00318789,-0.00002263,0.00052992,-0.00009839,-0.0
 0364593,0.00009750,0.00324007,-0.00045281,0.00014014,0.00025812,-0.000
 63744,0.00009984,-0.00038151,-0.00213136,-0.00202888,0.00038360,-0.002
 15337,0.00401118,0.00266497,-0.00089439,-0.00088639,0.00026092,-0.0002
 9528,0.00035828,-0.00040677,-0.00078216,0.00044271,0.00060896,-0.00419
 752,0.00259267,-0.00051850,-0.00053931,0.00041359,0.00039701,-0.000484
 13,0.00006040,0.00028540,0.00011194,-0.00051213,-0.00050422,-0.0833777
 7,0.02262840,0.04653789,-0.00796788,0.00419604,0.00894911,-0.01434512,
 0.01071638,0.01952004,0.00051656,0.00016479,0.00471519,0.12543413,0.00
 305429,-0.00141199,-0.00015026,-0.00024415,0.00015695,0.00061659,-0.00
 102799,0.00041942,-0.00058221,0.00006444,0.00306418,0.00506951,-0.0000
 1130,-0.00006959,0.00002116,-0.00058323,-0.00015304,-0.00040367,-0.001
 63292,0.00111921,-0.00054786,-0.00070058,0.00027002,0.00027995,0.00030
 345,-0.00022993,-0.00063618,0.00010087,0.00012916,0.00038630,-0.000001
 95,-0.00007713,-0.00004054,-0.00005458,-0.00003611,-0.00003941,0.00244
 582,-0.00525192,-0.00208173,0.00055667,0.00085005,0.00015843,0.0027287
 8,0.00151830,-0.00031758,0.00071792,-0.00022012,-0.00054690,0.00007931
 ,0.00003229,0.00024528,-0.00198784,-0.00329240,-0.00029272,0.00129221,
 0.00038398,-0.00197955,-0.00092097,-0.00457556,-0.00064428,0.00033968,
 -0.00033114,0.00015225,-0.00016317,0.00007919,0.00019194,0.00262317,-0
 .00011713,0.00023394,0.00002526,-0.00006717,-0.00007331,0.00048968,-0.
 00010416,-0.00026313,-0.00060003,-0.00054056,0.00035256,0.02260853,-0.
 04079149,-0.01976727,0.01659238,-0.00008908,-0.01708319,-0.00077726,0.
 00497785,0.00434600,-0.00085347,0.00181025,-0.00145214,-0.04446303,0.0
 4254768,-0.00598621,0.00259892,0.00213949,-0.00079248,0.00049787,-0.00
 184373,0.00517244,-0.00230136,-0.00067245,-0.00561550,0.00377772,-0.01
 995131,-0.00018927,0.00009333,-0.00030369,0.00018504,-0.00015307,0.000
 78137,0.00261290,-0.00117592,-0.00010255,0.00039591,-0.00000964,-0.002
 24186,0.00034656,-0.00019985,0.00248524,-0.00079076,-0.00005759,-0.001
 70859,0.00003076,0.00012991,0.00018908,0.00018888,0.00008837,0.0000842
 3,-0.00084439,-0.00003676,0.00621649,-0.00095322,0.00054634,-0.0002952
 0,0.00457732,0.00086108,-0.00156075,0.00083260,-0.00031547,-0.00051666
 ,-0.00037673,-0.00017753,-0.00027310,-0.00020054,-0.00051622,-0.000330
 78,0.00230906,-0.00365809,-0.00196892,0.00009436,0.00002486,-0.0002465
 0,-0.00004868,0.00041385,-0.00025561,0.00073330,-0.00036299,-0.0004627
 2,-0.00102113,0.00047639,0.00163517,0.00002623,0.00010135,0.00011053,-
 0.00003029,-0.00010808,0.00007992,0.00223458,-0.00089327,-0.00308912,0
 .04639639,-0.01978535,-0.07755331,0.00553709,-0.00418688,-0.00345079,0
 .00627987,-0.00057412,-0.00234589,0.02225799,-0.00994579,-0.01364186,-
 0.08336208,0.03484802,0.11909386\\0.00000050,0.00000176,0.00000758,-0.
 00000210,-0.00000566,0.00000087,0.00000039,-0.00000054,-0.00000340,-0.
 00000364,0.00000017,-0.00000747,-0.00000018,-0.00000385,-0.00000325,-0
 .00000134,-0.00000240,-0.00000225,0.00000278,-0.00000114,-0.00000507,-
 0.00000238,-0.00000025,-0.00000219,0.00001113,-0.00000137,0.00000093,-
 0.00000435,-0.00001207,-0.00000456,0.00000296,-0.00000062,-0.00000242,
 0.00000232,-0.00000051,-0.00000286,0.00000175,-0.00000127,0.00000767,-
 0.00000833,0.00000448,0.00000288,-0.00000095,0.00000012,0.00000853,-0.
 00000104,0.00000412,0.00000291,-0.00000102,0.00000259,-0.00000031,0.00
 000230,0.00000170,-0.00000404,0.00000572,0.00000043,0.00000094,0.00000
 116,0.00000235,0.00000332,0.00000296,-0.00000082,0.00000074,0.00000452
 ,0.00000043,0.00000186,0.00000168,0.00000410,-0.00000263,-0.00000028,0
 .00000326,0.00000434,-0.00000063,0.00000387,0.00000203,-0.00000124,0.0
 0000414,0.00000252,-0.00000468,-0.00000107,-0.00000325,-0.00000344,0.0
 0000124,-0.00000155,-0.00000120,-0.00000127,-0.00000085,-0.00000328,-0
 .00000017,-0.00000099,-0.00000009,-0.00000171,-0.00000002\\\@


 CONFIDENCE: THAT QUIET ASSURED FEELING YOU HAVE
 JUST BEFORE YOU FALL FLAT ON YOUR FACE.
 Job cpu time:       0 days  0 hours 28 minutes 56.2 seconds.
 File lengths (MBytes):  RWF=    254 Int=      0 D2E=      0 Chk=      6 Scr=      1
 Normal termination of Gaussian 09 at Fri Feb 12 11:25:38 2021.
