 Entering Gaussian System, Link 0=g09
 Initial command:
 /opt/software/gaussian/g09.e01/l1.exe "/localscratch/enas93.66158496.0/Gau-112013.inp" -scrdir="/localscratch/enas93.66158496.0/"
 Entering Link 1 = /opt/software/gaussian/g09.e01/l1.exe PID=    112014.
  
 Copyright (c) 1988,1990,1992,1993,1995,1998,2003,2009,2015,
            Gaussian, Inc.  All Rights Reserved.
  
 This is part of the Gaussian(R) 09 program.  It is based on
 the Gaussian(R) 03 system (copyright 2003, Gaussian, Inc.),
 the Gaussian(R) 98 system (copyright 1998, Gaussian, Inc.),
 the Gaussian(R) 94 system (copyright 1995, Gaussian, Inc.),
 the Gaussian 92(TM) system (copyright 1992, Gaussian, Inc.),
 the Gaussian 90(TM) system (copyright 1990, Gaussian, Inc.),
 the Gaussian 88(TM) system (copyright 1988, Gaussian, Inc.),
 the Gaussian 86(TM) system (copyright 1986, Carnegie Mellon
 University), and the Gaussian 82(TM) system (copyright 1983,
 Carnegie Mellon University). Gaussian is a federally registered
 trademark of Gaussian, Inc.
  
 This software contains proprietary and confidential information,
 including trade secrets, belonging to Gaussian, Inc.
  
 This software is provided under written license and may be
 used, copied, transmitted, or stored only in accord with that
 written license.
  
 The following legend is applicable only to US Government
 contracts under FAR:
  
                    RESTRICTED RIGHTS LEGEND
  
 Use, reproduction and disclosure by the US Government is
 subject to restrictions as set forth in subparagraphs (a)
 and (c) of the Commercial Computer Software - Restricted
 Rights clause in FAR 52.227-19.
  
 Gaussian, Inc.
 340 Quinnipiac St., Bldg. 40, Wallingford CT 06492
  
  
 ---------------------------------------------------------------
 Warning -- This program may not be used in any manner that
 competes with the business of Gaussian, Inc. or will provide
 assistance to any competitor of Gaussian, Inc.  The licensee
 of this program is prohibited from giving any competitor of
 Gaussian, Inc. access to this program.  By using this program,
 the user acknowledges that Gaussian, Inc. is engaged in the
 business of creating and licensing software in the field of
 computational chemistry and represents and warrants to the
 licensee that it is not a competitor of Gaussian, Inc. and that
 it will not use this program in any manner prohibited above.
 ---------------------------------------------------------------
  

 Cite this work as:
 Gaussian 09, Revision E.01,
 M. J. Frisch, G. W. Trucks, H. B. Schlegel, G. E. Scuseria, 
 M. A. Robb, J. R. Cheeseman, G. Scalmani, V. Barone, B. Mennucci, 
 G. A. Petersson, H. Nakatsuji, M. Caricato, X. Li, H. P. Hratchian, 
 A. F. Izmaylov, J. Bloino, G. Zheng, J. L. Sonnenberg, M. Hada, 
 M. Ehara, K. Toyota, R. Fukuda, J. Hasegawa, M. Ishida, T. Nakajima, 
 Y. Honda, O. Kitao, H. Nakai, T. Vreven, J. A. Montgomery, Jr., 
 J. E. Peralta, F. Ogliaro, M. Bearpark, J. J. Heyd, E. Brothers, 
 K. N. Kudin, V. N. Staroverov, T. Keith, R. Kobayashi, J. Normand, 
 K. Raghavachari, A. Rendell, J. C. Burant, S. S. Iyengar, J. Tomasi, 
 M. Cossi, N. Rega, J. M. Millam, M. Klene, J. E. Knox, J. B. Cross, 
 V. Bakken, C. Adamo, J. Jaramillo, R. Gomperts, R. E. Stratmann, 
 O. Yazyev, A. J. Austin, R. Cammi, C. Pomelli, J. W. Ochterski, 
 R. L. Martin, K. Morokuma, V. G. Zakrzewski, G. A. Voth, 
 P. Salvador, J. J. Dannenberg, S. Dapprich, A. D. Daniels, 
 O. Farkas, J. B. Foresman, J. V. Ortiz, J. Cioslowski, 
 and D. J. Fox, Gaussian, Inc., Wallingford CT, 2013.
 
 ******************************************
 Gaussian 09:  EM64L-G09RevE.01 30-Nov-2015
                 9-Apr-2021 
 ******************************************
 %nprocshared=32
 Will use up to   32 processors via shared memory.
 %mem=20GB
 -----------------------------------------------------
 # opt=(tight,modredundant) freq b3lyp/6-31g(d) nosymm
 -----------------------------------------------------
 1/7=10,14=-1,18=120,19=15,26=3,38=1/1,3;
 2/9=110,12=2,15=1,17=6,18=5,40=1/2;
 3/5=1,6=6,7=1,11=2,16=1,25=1,30=1,71=1,74=-5/1,2,3;
 4//1;
 5/5=2,38=5/2;
 6/7=2,8=2,9=2,10=2,28=1/1;
 7/30=1/1,2,3,16;
 1/7=10,14=-1,18=20,19=15,26=3/3(2);
 2/9=110,15=1/2;
 99//99;
 2/9=110,15=1/2;
 3/5=1,6=6,7=1,11=2,16=1,25=1,30=1,71=1,74=-5/1,2,3;
 4/5=5,16=3,69=1/1;
 5/5=2,38=5/2;
 7/30=1/1,2,3,16;
 1/7=10,14=-1,18=20,19=15,26=3/3(-5);
 2/9=110,15=1/2;
 6/7=2,8=2,9=2,10=2,19=2,28=1/1;
 99/9=1/99;
 -------------------
 Title Card Required
 -------------------
 Symbolic Z-matrix:
 Charge =  0 Multiplicity = 1
 C                    -2.13039  -3.6612   -0.44379 
 O                    -2.93381  -3.14299   0.37335 
 O                    -1.62881  -4.89649  -0.0968 
 O                    -1.6992   -3.19106  -1.5145 
 H                    -2.05435  -5.11077   0.74643 
 C                     1.51934   0.33439  -0.09336 
 C                     3.08331  -1.96517  -0.30393 
 C                     3.61734  -0.81987   0.17931 
 N                     2.8661    0.30344   0.29023 
 H                     3.6681   -2.87083  -0.39581 
 H                     4.64975  -0.73653   0.5005 
 O                     0.88263   1.39031   0.04213 
 N                     0.97719  -0.79706  -0.59103 
 C                     1.69296  -1.91538  -0.68511 
 N                     1.09005  -3.00977  -1.15581 
 H                     0.07487  -3.02999  -1.35885 
 H                     1.58213  -3.88964  -1.16593 
 H                     3.26291   1.16268   0.66978 
 S                    -3.60687  -0.69992  -0.48085 
 C                    -4.02342   1.00409  -0.9451 
 H                    -5.10901   1.11522  -0.92737 
 H                    -3.55357   1.71971  -0.267 
 H                    -3.66139   1.16382  -1.96245 
 C                    -3.9976   -0.62022   1.27821 
 H                    -3.42109   0.18101   1.74552 
 H                    -5.06854  -0.43763   1.38151 
 H                    -3.72709  -1.60098   1.66886 
 C                    -1.80013  -0.56899  -0.47203 
 H                    -1.45871  -1.31039   0.24348 
 H                    -1.45344  -0.86731  -1.4558 
 H                    -1.48424   0.44115  -0.20109 
 N                     0.53327   3.58699   2.04574 
 H                     1.21055   3.59274   2.80929 
 C                     1.19461   4.13866   0.87778 
 H                     0.51516   4.02554   0.025 
 C                     1.51324   5.61937   1.09223 
 C                     2.4988    3.41431   0.55935 
 H                     2.20503   5.72987   1.93358 
 H                     1.97844   6.06258   0.20662 
 H                     0.59197   6.15687   1.32569 
 O                     3.25613   3.01995   1.41736 
 O                     2.84129   3.2854   -0.73476 
 H                     0.35963   2.60248   1.8392 
 H                     2.03931   3.34347  -1.27733 
 
 Add virtual bond connecting atoms H16        and O4         Dist= 3.38D+00.
 Add virtual bond connecting atoms O41        and H18        Dist= 3.78D+00.
 Add virtual bond connecting atoms H27        and O2         Dist= 4.09D+00.
 The following ModRedundant input section has been read:
 A      13      28      19 F                                                   
 

 GradGradGradGradGradGradGradGradGradGradGradGradGradGradGradGradGradGrad
 Berny optimization.
 Initialization pass.
                           ----------------------------
                           !    Initial Parameters    !
                           ! (Angstroms and Degrees)  !
 --------------------------                            --------------------------
 ! Name  Definition              Value          Derivative Info.                !
 --------------------------------------------------------------------------------
 ! R1    R(1,2)                  1.2577         estimate D2E/DX2                !
 ! R2    R(1,3)                  1.3777         estimate D2E/DX2                !
 ! R3    R(1,4)                  1.2463         estimate D2E/DX2                !
 ! R4    R(2,27)                 2.1646         estimate D2E/DX2                !
 ! R5    R(3,5)                  0.9685         estimate D2E/DX2                !
 ! R6    R(4,16)                 1.7882         estimate D2E/DX2                !
 ! R7    R(6,9)                  1.4007         estimate D2E/DX2                !
 ! R8    R(6,12)                 1.2405         estimate D2E/DX2                !
 ! R9    R(6,13)                 1.3497         estimate D2E/DX2                !
 ! R10   R(7,8)                  1.3529         estimate D2E/DX2                !
 ! R11   R(7,10)                 1.082          estimate D2E/DX2                !
 ! R12   R(7,14)                 1.4425         estimate D2E/DX2                !
 ! R13   R(8,9)                  1.3559         estimate D2E/DX2                !
 ! R14   R(8,11)                 1.0844         estimate D2E/DX2                !
 ! R15   R(9,18)                 1.0197         estimate D2E/DX2                !
 ! R16   R(13,14)                1.3311         estimate D2E/DX2                !
 ! R17   R(14,15)                1.3352         estimate D2E/DX2                !
 ! R18   R(15,16)                1.0355         estimate D2E/DX2                !
 ! R19   R(15,17)                1.0082         estimate D2E/DX2                !
 ! R20   R(18,41)                2.0021         estimate D2E/DX2                !
 ! R21   R(19,20)                1.8146         estimate D2E/DX2                !
 ! R22   R(19,24)                1.8037         estimate D2E/DX2                !
 ! R23   R(19,28)                1.8115         estimate D2E/DX2                !
 ! R24   R(20,21)                1.0914         estimate D2E/DX2                !
 ! R25   R(20,22)                1.0921         estimate D2E/DX2                !
 ! R26   R(20,23)                1.0916         estimate D2E/DX2                !
 ! R27   R(24,25)                1.0921         estimate D2E/DX2                !
 ! R28   R(24,26)                1.0913         estimate D2E/DX2                !
 ! R29   R(24,27)                1.0898         estimate D2E/DX2                !
 ! R30   R(28,29)                1.0854         estimate D2E/DX2                !
 ! R31   R(28,30)                1.0849         estimate D2E/DX2                !
 ! R32   R(28,31)                1.0925         estimate D2E/DX2                !
 ! R33   R(32,33)                1.0207         estimate D2E/DX2                !
 ! R34   R(32,34)                1.4512         estimate D2E/DX2                !
 ! R35   R(32,43)                1.0208         estimate D2E/DX2                !
 ! R36   R(34,35)                1.0962         estimate D2E/DX2                !
 ! R37   R(34,36)                1.5297         estimate D2E/DX2                !
 ! R38   R(34,37)                1.5255         estimate D2E/DX2                !
 ! R39   R(36,38)                1.0948         estimate D2E/DX2                !
 ! R40   R(36,39)                1.0941         estimate D2E/DX2                !
 ! R41   R(36,40)                1.0919         estimate D2E/DX2                !
 ! R42   R(37,41)                1.2105         estimate D2E/DX2                !
 ! R43   R(37,42)                1.3449         estimate D2E/DX2                !
 ! R44   R(42,44)                0.97           estimate D2E/DX2                !
 ! A1    A(2,1,3)              116.0018         estimate D2E/DX2                !
 ! A2    A(2,1,4)              128.5902         estimate D2E/DX2                !
 ! A3    A(3,1,4)              115.3817         estimate D2E/DX2                !
 ! A4    A(1,2,27)             156.4201         estimate D2E/DX2                !
 ! A5    A(1,3,5)              104.9335         estimate D2E/DX2                !
 ! A6    A(1,4,16)             107.6036         estimate D2E/DX2                !
 ! A7    A(9,6,12)             118.8447         estimate D2E/DX2                !
 ! A8    A(9,6,13)             117.9476         estimate D2E/DX2                !
 ! A9    A(12,6,13)            123.2073         estimate D2E/DX2                !
 ! A10   A(8,7,10)             121.7075         estimate D2E/DX2                !
 ! A11   A(8,7,14)             116.462          estimate D2E/DX2                !
 ! A12   A(10,7,14)            121.8301         estimate D2E/DX2                !
 ! A13   A(7,8,9)              120.7868         estimate D2E/DX2                !
 ! A14   A(7,8,11)             123.1365         estimate D2E/DX2                !
 ! A15   A(9,8,11)             116.0765         estimate D2E/DX2                !
 ! A16   A(6,9,8)              121.9129         estimate D2E/DX2                !
 ! A17   A(6,9,18)             117.2243         estimate D2E/DX2                !
 ! A18   A(8,9,18)             120.8594         estimate D2E/DX2                !
 ! A19   A(6,13,14)            120.9541         estimate D2E/DX2                !
 ! A20   A(7,14,13)            121.9114         estimate D2E/DX2                !
 ! A21   A(7,14,15)            120.0053         estimate D2E/DX2                !
 ! A22   A(13,14,15)           118.0821         estimate D2E/DX2                !
 ! A23   A(14,15,16)           121.8584         estimate D2E/DX2                !
 ! A24   A(14,15,17)           119.8994         estimate D2E/DX2                !
 ! A25   A(16,15,17)           117.3557         estimate D2E/DX2                !
 ! A26   A(9,18,41)            156.8307         estimate D2E/DX2                !
 ! A27   A(20,19,24)            99.1075         estimate D2E/DX2                !
 ! A28   A(20,19,28)            99.342          estimate D2E/DX2                !
 ! A29   A(24,19,28)           102.0123         estimate D2E/DX2                !
 ! A30   A(19,20,21)           108.6502         estimate D2E/DX2                !
 ! A31   A(19,20,22)           110.9602         estimate D2E/DX2                !
 ! A32   A(19,20,23)           107.4406         estimate D2E/DX2                !
 ! A33   A(21,20,22)           110.5562         estimate D2E/DX2                !
 ! A34   A(21,20,23)           109.2768         estimate D2E/DX2                !
 ! A35   A(22,20,23)           109.8839         estimate D2E/DX2                !
 ! A36   A(19,24,25)           109.5951         estimate D2E/DX2                !
 ! A37   A(19,24,26)           108.1978         estimate D2E/DX2                !
 ! A38   A(19,24,27)           104.8358         estimate D2E/DX2                !
 ! A39   A(25,24,26)           110.7801         estimate D2E/DX2                !
 ! A40   A(25,24,27)           112.0755         estimate D2E/DX2                !
 ! A41   A(26,24,27)           111.1144         estimate D2E/DX2                !
 ! A42   A(2,27,24)            121.1665         estimate D2E/DX2                !
 ! A43   A(13,28,19)           170.7528         Frozen                          !
 ! A44   A(19,28,29)           105.519          estimate D2E/DX2                !
 ! A45   A(19,28,30)           107.1237         estimate D2E/DX2                !
 ! A46   A(19,28,31)           110.8799         estimate D2E/DX2                !
 ! A47   A(29,28,30)           108.0235         estimate D2E/DX2                !
 ! A48   A(29,28,31)           112.1555         estimate D2E/DX2                !
 ! A49   A(30,28,31)           112.751          estimate D2E/DX2                !
 ! A50   A(33,32,34)           107.3108         estimate D2E/DX2                !
 ! A51   A(33,32,43)           105.6451         estimate D2E/DX2                !
 ! A52   A(34,32,43)           106.3386         estimate D2E/DX2                !
 ! A53   A(32,34,35)           107.7231         estimate D2E/DX2                !
 ! A54   A(32,34,36)           110.4922         estimate D2E/DX2                !
 ! A55   A(32,34,37)           112.1554         estimate D2E/DX2                !
 ! A56   A(35,34,36)           109.7581         estimate D2E/DX2                !
 ! A57   A(35,34,37)           108.5736         estimate D2E/DX2                !
 ! A58   A(36,34,37)           108.1087         estimate D2E/DX2                !
 ! A59   A(34,36,38)           109.6964         estimate D2E/DX2                !
 ! A60   A(34,36,39)           111.5424         estimate D2E/DX2                !
 ! A61   A(34,36,40)           109.3137         estimate D2E/DX2                !
 ! A62   A(38,36,39)           108.2081         estimate D2E/DX2                !
 ! A63   A(38,36,40)           108.6115         estimate D2E/DX2                !
 ! A64   A(39,36,40)           109.415          estimate D2E/DX2                !
 ! A65   A(34,37,41)           122.7949         estimate D2E/DX2                !
 ! A66   A(34,37,42)           117.653          estimate D2E/DX2                !
 ! A67   A(41,37,42)           119.4403         estimate D2E/DX2                !
 ! A68   A(18,41,37)            92.2731         estimate D2E/DX2                !
 ! A69   A(37,42,44)           108.7806         estimate D2E/DX2                !
 ! A70   L(4,16,15,12,-1)      182.1271         estimate D2E/DX2                !
 ! A71   L(4,16,15,12,-2)      172.5702         estimate D2E/DX2                !
 ! D1    D(3,1,2,27)           127.6582         estimate D2E/DX2                !
 ! D2    D(4,1,2,27)           -50.3708         estimate D2E/DX2                !
 ! D3    D(2,1,3,5)              1.4124         estimate D2E/DX2                !
 ! D4    D(4,1,3,5)            179.7073         estimate D2E/DX2                !
 ! D5    D(2,1,4,16)           118.1487         estimate D2E/DX2                !
 ! D6    D(3,1,4,16)           -59.8906         estimate D2E/DX2                !
 ! D7    D(1,2,27,24)           58.6972         estimate D2E/DX2                !
 ! D8    D(1,4,15,14)          -91.5842         estimate D2E/DX2                !
 ! D9    D(1,4,15,17)           72.6145         estimate D2E/DX2                !
 ! D10   D(12,6,9,8)           179.4657         estimate D2E/DX2                !
 ! D11   D(12,6,9,18)            0.1341         estimate D2E/DX2                !
 ! D12   D(13,6,9,8)            -0.3213         estimate D2E/DX2                !
 ! D13   D(13,6,9,18)         -179.6529         estimate D2E/DX2                !
 ! D14   D(9,6,13,14)            1.5139         estimate D2E/DX2                !
 ! D15   D(12,6,13,14)        -178.2631         estimate D2E/DX2                !
 ! D16   D(10,7,8,9)          -179.798          estimate D2E/DX2                !
 ! D17   D(10,7,8,11)            0.019          estimate D2E/DX2                !
 ! D18   D(14,7,8,9)            -0.0126         estimate D2E/DX2                !
 ! D19   D(14,7,8,11)          179.8044         estimate D2E/DX2                !
 ! D20   D(8,7,14,13)            1.211          estimate D2E/DX2                !
 ! D21   D(8,7,14,15)         -179.2007         estimate D2E/DX2                !
 ! D22   D(10,7,14,13)        -179.0039         estimate D2E/DX2                !
 ! D23   D(10,7,14,15)           0.5844         estimate D2E/DX2                !
 ! D24   D(7,8,9,6)             -0.4052         estimate D2E/DX2                !
 ! D25   D(7,8,9,18)           178.9024         estimate D2E/DX2                !
 ! D26   D(11,8,9,6)           179.7654         estimate D2E/DX2                !
 ! D27   D(11,8,9,18)           -0.927          estimate D2E/DX2                !
 ! D28   D(6,9,18,41)           12.1131         estimate D2E/DX2                !
 ! D29   D(8,9,18,41)         -167.2259         estimate D2E/DX2                !
 ! D30   D(6,13,14,7)           -1.9967         estimate D2E/DX2                !
 ! D31   D(6,13,14,15)         178.4074         estimate D2E/DX2                !
 ! D32   D(7,14,15,16)         174.491          estimate D2E/DX2                !
 ! D33   D(7,14,15,17)           5.5554         estimate D2E/DX2                !
 ! D34   D(13,14,15,16)         -5.9051         estimate D2E/DX2                !
 ! D35   D(13,14,15,17)       -174.8407         estimate D2E/DX2                !
 ! D36   D(9,18,41,37)         -46.7767         estimate D2E/DX2                !
 ! D37   D(24,19,20,21)        -72.1711         estimate D2E/DX2                !
 ! D38   D(24,19,20,22)         49.5737         estimate D2E/DX2                !
 ! D39   D(24,19,20,23)        169.7134         estimate D2E/DX2                !
 ! D40   D(28,19,20,21)       -176.0567         estimate D2E/DX2                !
 ! D41   D(28,19,20,22)        -54.3119         estimate D2E/DX2                !
 ! D42   D(28,19,20,23)         65.8279         estimate D2E/DX2                !
 ! D43   D(20,19,24,25)        -56.6508         estimate D2E/DX2                !
 ! D44   D(20,19,24,26)         64.243          estimate D2E/DX2                !
 ! D45   D(20,19,24,27)       -177.1139         estimate D2E/DX2                !
 ! D46   D(28,19,24,25)         45.0143         estimate D2E/DX2                !
 ! D47   D(28,19,24,26)        165.9081         estimate D2E/DX2                !
 ! D48   D(28,19,24,27)        -75.4488         estimate D2E/DX2                !
 ! D49   D(20,19,28,29)        151.9188         estimate D2E/DX2                !
 ! D50   D(20,19,28,30)        -93.1481         estimate D2E/DX2                !
 ! D51   D(20,19,28,31)         30.2623         estimate D2E/DX2                !
 ! D52   D(24,19,28,29)         50.4397         estimate D2E/DX2                !
 ! D53   D(24,19,28,30)        165.3729         estimate D2E/DX2                !
 ! D54   D(24,19,28,31)        -71.2167         estimate D2E/DX2                !
 ! D55   D(19,24,27,2)          -0.7222         estimate D2E/DX2                !
 ! D56   D(25,24,27,2)        -119.5258         estimate D2E/DX2                !
 ! D57   D(26,24,27,2)         115.932          estimate D2E/DX2                !
 ! D58   D(33,32,34,35)        173.3411         estimate D2E/DX2                !
 ! D59   D(33,32,34,36)        -66.7708         estimate D2E/DX2                !
 ! D60   D(33,32,34,37)         53.9228         estimate D2E/DX2                !
 ! D61   D(43,32,34,35)         60.6522         estimate D2E/DX2                !
 ! D62   D(43,32,34,36)       -179.4597         estimate D2E/DX2                !
 ! D63   D(43,32,34,37)        -58.766          estimate D2E/DX2                !
 ! D64   D(32,34,36,38)         62.2842         estimate D2E/DX2                !
 ! D65   D(32,34,36,39)       -177.8393         estimate D2E/DX2                !
 ! D66   D(32,34,36,40)        -56.7058         estimate D2E/DX2                !
 ! D67   D(35,34,36,38)       -179.0595         estimate D2E/DX2                !
 ! D68   D(35,34,36,39)        -59.183          estimate D2E/DX2                !
 ! D69   D(35,34,36,40)         61.9505         estimate D2E/DX2                !
 ! D70   D(37,34,36,38)        -60.7946         estimate D2E/DX2                !
 ! D71   D(37,34,36,39)         59.0819         estimate D2E/DX2                !
 ! D72   D(37,34,36,40)       -179.7846         estimate D2E/DX2                !
 ! D73   D(32,34,37,41)        -38.0025         estimate D2E/DX2                !
 ! D74   D(32,34,37,42)        145.8694         estimate D2E/DX2                !
 ! D75   D(35,34,37,41)       -156.9213         estimate D2E/DX2                !
 ! D76   D(35,34,37,42)         26.9506         estimate D2E/DX2                !
 ! D77   D(36,34,37,41)         84.06           estimate D2E/DX2                !
 ! D78   D(36,34,37,42)        -92.0682         estimate D2E/DX2                !
 ! D79   D(34,37,41,18)        126.5196         estimate D2E/DX2                !
 ! D80   D(42,37,41,18)        -57.4186         estimate D2E/DX2                !
 ! D81   D(34,37,42,44)        -23.6914         estimate D2E/DX2                !
 ! D82   D(41,37,42,44)        160.0457         estimate D2E/DX2                !
 --------------------------------------------------------------------------------
 Trust Radius=3.00D-01 FncErr=1.00D-07 GrdErr=1.00D-06
 Number of steps in this run=    207 maximum allowed number of steps=    264.
 GradGradGradGradGradGradGradGradGradGradGradGradGradGradGradGradGradGrad

                          Input orientation:                          
 ---------------------------------------------------------------------
 Center     Atomic      Atomic             Coordinates (Angstroms)
 Number     Number       Type             X           Y           Z
 ---------------------------------------------------------------------
      1          6           0       -2.130388   -3.661196   -0.443786
      2          8           0       -2.933810   -3.142988    0.373350
      3          8           0       -1.628810   -4.896488   -0.096803
      4          8           0       -1.699204   -3.191063   -1.514503
      5          1           0       -2.054351   -5.110769    0.746427
      6          6           0        1.519341    0.334391   -0.093356
      7          6           0        3.083311   -1.965174   -0.303933
      8          6           0        3.617336   -0.819872    0.179306
      9          7           0        2.866100    0.303436    0.290231
     10          1           0        3.668101   -2.870830   -0.395810
     11          1           0        4.649746   -0.736529    0.500496
     12          8           0        0.882626    1.390312    0.042132
     13          7           0        0.977194   -0.797056   -0.591025
     14          6           0        1.692961   -1.915380   -0.685105
     15          7           0        1.090055   -3.009775   -1.155810
     16          1           0        0.074869   -3.029992   -1.358849
     17          1           0        1.582134   -3.889644   -1.165926
     18          1           0        3.262909    1.162677    0.669776
     19         16           0       -3.606865   -0.699922   -0.480848
     20          6           0       -4.023420    1.004095   -0.945099
     21          1           0       -5.109012    1.115216   -0.927365
     22          1           0       -3.553571    1.719713   -0.266997
     23          1           0       -3.661390    1.163821   -1.962446
     24          6           0       -3.997601   -0.620219    1.278206
     25          1           0       -3.421092    0.181006    1.745517
     26          1           0       -5.068542   -0.437625    1.381505
     27          1           0       -3.727094   -1.600984    1.668859
     28          6           0       -1.800125   -0.568991   -0.472030
     29          1           0       -1.458705   -1.310390    0.243477
     30          1           0       -1.453435   -0.867307   -1.455795
     31          1           0       -1.484242    0.441154   -0.201092
     32          7           0        0.533274    3.586986    2.045742
     33          1           0        1.210546    3.592744    2.809293
     34          6           0        1.194613    4.138662    0.877778
     35          1           0        0.515164    4.025536    0.025000
     36          6           0        1.513237    5.619370    1.092225
     37          6           0        2.498803    3.414308    0.559348
     38          1           0        2.205033    5.729867    1.933581
     39          1           0        1.978439    6.062576    0.206623
     40          1           0        0.591970    6.156869    1.325687
     41          8           0        3.256131    3.019951    1.417362
     42          8           0        2.841294    3.285395   -0.734757
     43          1           0        0.359634    2.602484    1.839199
     44          1           0        2.039314    3.343465   -1.277327
 ---------------------------------------------------------------------
                    Distance matrix (angstroms):
                    1          2          3          4          5
     1  C    0.000000
     2  O    1.257672   0.000000
     3  O    1.377652   2.235807   0.000000
     4  O    1.246346   2.256225   2.218852   0.000000
     5  H    1.877139   2.187418   0.968524   2.987173   0.000000
     6  C    5.422918   5.669262   6.105159   4.980714   6.567060
     7  C    5.484406   6.168606   5.553340   5.083378   6.115030
     8  C    6.441871   6.953563   6.649593   6.062766   7.134526
     9  N    6.420435   6.747126   6.884273   6.025827   7.330250
    10  H    5.852303   6.652135   5.678905   5.491993   6.250479
    11  H    7.444163   7.957231   7.555282   7.098882   8.008706
    12  O    5.901873   5.935124   6.771297   5.484337   7.168397
    13  N    4.228716   4.661477   4.882710   3.707720   5.439408
    14  C    4.210001   4.902485   4.501918   3.717802   5.128561
    15  N    3.361931   4.306688   3.474681   2.818065   4.233199
    16  H    2.469599   3.473533   2.824728   1.788157   3.646285
    17  H    3.788996   4.829142   3.530853   3.372936   4.286288
    18  H    7.321026   7.551553   7.824963   6.953322   8.224066
    19  S    3.309154   2.674178   4.655251   3.303543   4.834467
    20  C    5.059627   4.485962   6.424223   4.829653   6.643046
    21  H    5.649793   4.955367   6.995872   5.524089   7.134103
    22  H    5.568742   4.943684   6.892589   5.395430   7.066129
    23  H    5.284987   4.953173   6.658780   4.797483   7.020758
    24  C    3.962232   2.883536   5.078218   4.437465   4.921793
    25  H    4.606678   3.628942   5.690990   4.996346   5.555992
    26  H    4.728197   3.590605   5.822251   5.226923   5.597048
    27  H    3.355177   2.164583   4.287272   4.095666   3.995941
    28  C    3.109920   2.936898   4.347111   2.823508   4.709248
    29  H    2.539641   2.356102   3.606220   2.585588   3.879515
    30  H    3.047662   3.273531   4.255810   2.337454   4.818491
    31  H    4.160010   3.908619   5.340618   3.868366   5.660977
    32  N    8.113506   7.753071   9.013015   7.975039   9.167059
    33  H    8.623457   8.275240   9.411397   8.554642   9.521875
    34  C    8.581372   8.385747   9.516063   8.235415   9.804335
    35  H    8.142761   7.962695   9.176817   7.704077   9.518137
    36  C   10.087826   9.852509  11.039453   9.733372  11.312964
    37  C    8.514602   8.517395   9.302529   8.096607   9.666600
    38  H   10.613191  10.371576  11.477815  10.330312  11.707736
    39  H   10.576258  10.435535  11.541464  10.105304  11.891107
    40  H   10.341019   9.991267  11.363628  10.034938  11.588711
    41  O    8.781582   8.796997   9.424720   8.469231   9.734474
    42  O    8.547363   8.712281   9.345160   7.947870   9.831420
    43  H    7.116594   6.782768   7.996036   7.003665   8.155719
    44  H    8.194296   8.338511   9.096461   7.532120   9.608733
                    6          7          8          9         10
     6  C    0.000000
     7  C    2.788968   0.000000
     8  C    2.410031   1.352930   0.000000
     9  N    1.400663   2.355165   1.355906   0.000000
    10  H    3.870670   1.081958   2.130672   3.345119   0.000000
    11  H    3.361393   2.147183   1.084426   2.075363   2.514405
    12  O    1.240456   4.027662   3.518859   2.275307   5.109598
    13  N    1.349730   2.425418   2.750324   2.357045   3.402885
    14  C    2.332762   1.442513   2.377091   2.692709   2.213087
    15  N    3.535045   2.406233   3.600744   4.027746   2.691324
    16  H    3.873893   3.361162   4.449677   4.649965   3.723452
    17  H    4.358534   2.588465   3.921122   4.620701   2.445878
    18  H    2.075682   3.280826   2.072843   1.019709   4.191519
    19  S    5.243848   6.811066   7.255293   6.595496   7.592444
    20  C    5.647669   7.728731   7.935508   7.034376   8.629963
    21  H    6.726093   8.774487   9.006577   8.108264   9.654472
    22  H    5.261531   7.591308   7.620406   6.597615   8.558167
    23  H    5.569688   7.617891   7.842321   6.958659   8.512003
    24  C    5.764470   7.379118   7.696409   6.995686   8.162755
    25  H    5.273790   7.149377   7.279714   6.454582   8.009722
    26  H    6.794956   8.463263   8.777008   8.043544   9.241659
    27  H    5.863118   7.099729   7.534557   6.999831   7.782305
    28  C    3.460975   5.081883   5.462240   4.807892   5.933445
    29  H    3.418701   4.621505   5.100090   4.616336   5.397018
    30  H    3.483922   4.807719   5.328088   4.803918   5.600697
    31  H    3.007410   5.163674   5.268870   4.380164   6.128115
    32  N    4.015899   6.546002   5.693454   4.393813   7.582328
    33  H    4.374653   6.640021   5.672799   4.461623   7.621683
    34  C    3.939674   6.497725   5.562779   4.224694   7.541429
    35  H    3.827131   6.526269   5.755455   4.410360   7.594601
    36  C    5.416331   7.870178   6.835532   5.543698   8.884885
    37  C    3.297159   5.479574   4.395888   3.144019   6.463942
    38  H    5.804292   8.061730   6.926122   5.708219   9.029874
    39  H    5.754378   8.119494   7.074943   5.827746   9.111730
    40  H    6.064235   8.650435   7.690380   6.364473   9.691516
    41  O    3.537081   5.276760   4.050616   2.966817   6.177266
    42  O    3.296571   5.273771   4.276794   3.153299   6.220740
    43  H    3.197489   5.733666   5.008032   3.737284   6.774835
    44  H    3.275162   5.497188   4.684582   3.518890   6.484403
                   11         12         13         14         15
    11  H    0.000000
    12  O    4.350258   0.000000
    13  N    3.831804   2.279125   0.000000
    14  C    3.396751   3.480390   1.331098   0.000000
    15  N    4.536783   4.564960   2.286448   1.335200   0.000000
    16  H    5.444872   4.706836   2.527795   2.077140   1.035488
    17  H    4.704183   5.461378   3.203212   2.034991   1.008173
    18  H    2.357744   2.472145   3.264149   3.711452   5.046129
    19  S    8.314806   4.979771   4.586412   5.441251   5.277504
    20  C    8.963444   5.019270   5.326880   6.424013   6.504089
    21  H   10.034994   6.075799   6.388412   7.450506   7.449575
    22  H    8.597475   4.459138   5.192971   6.396469   6.687399
    23  H    8.874255   4.971691   5.219415   6.307310   6.375405
    24  C    8.683028   5.420953   5.317319   6.157477   6.125247
    25  H    8.217687   4.783924   5.075525   6.037905   6.240932
    26  H    9.762717   6.368020   6.369536   7.223057   7.140185
    27  H    8.501988   5.730935   5.280502   5.917515   5.759199
    28  C    6.524930   3.361604   2.789207   3.749642   3.844232
    29  H    6.140729   3.579967   2.625549   3.340850   3.367802
    30  H    6.410382   3.577403   2.580837   3.404736   3.339087
    31  H    6.285298   2.561664   2.782783   3.985240   4.409921
    32  N    6.166515   2.993639   5.135117   6.251274   7.353720
    33  H    5.991765   3.551819   5.557604   6.540869   7.702585
    34  C    5.987301   2.889475   5.154218   6.272350   7.432803
    35  H    6.324407   2.660776   4.883682   6.098027   7.156844
    36  C    7.112333   4.402874   6.655163   7.743621   8.927199
    37  C    4.675411   2.641231   4.623228   5.532054   6.796704
    38  H    7.060073   4.915087   7.105065   8.097502   9.336426
    39  H    7.310956   4.801866   6.978057   8.032712   9.216995
    40  H    8.041481   4.944902   7.223521   8.391464   9.509641
    41  O    4.110225   3.190691   4.878188   5.587608   6.904397
    42  O    4.579544   2.833951   4.490204   5.326274   6.547770
    43  H    5.598767   2.229873   4.224244   5.344246   6.403206
    44  H    5.159589   2.625587   4.329321   5.303408   6.424914
                   16         17         18         19         20
    16  H    0.000000
    17  H    1.745872   0.000000
    18  H    5.644235   5.632118   0.000000
    19  S    4.444691   6.129386   7.210201   0.000000
    20  C    5.765503   7.444440   7.464821   1.814586   0.000000
    21  H    6.651432   8.359245   8.523038   2.398030   1.091408
    22  H    6.075970   7.658226   6.903060   2.429651   1.092103
    23  H    5.649073   7.325742   7.407733   2.381521   1.091592
    24  C    5.417202   6.913491   7.500927   1.803690   2.753570
    25  H    5.671802   7.076649   6.840816   2.401509   2.877445
    26  H    6.378447   7.914375   8.513554   2.381944   2.929833
    27  H    5.065965   6.439089   7.582620   2.334011   3.702300
    28  C    3.218474   4.790397   5.471445   1.811499   2.764314
    29  H    2.806480   4.229145   5.347095   2.347746   3.653398
    30  H    2.649966   4.293393   5.557228   2.369768   3.219904
    31  H    3.977447   5.393457   4.880005   2.426076   2.705157
    32  N    7.455587   8.204567   3.901469   6.473175   6.031577
    33  H    7.907199   8.480954   3.833400   7.242890   6.941971
    34  C    7.592491   8.293407   3.630096   6.950680   6.354232
    35  H    7.203428   8.075073   4.020174   6.291022   5.537955
    36  C    9.104292   9.773707   4.806446   8.283927   7.490395
    37  C    7.147303   7.560725   2.380314   7.435595   7.114203
    38  H    9.597543  10.125707   4.855464   8.997211   8.331467
    39  H    9.420673  10.054234   5.086589   8.797705   7.933285
    40  H    9.585017  10.398124   5.701411   8.240714   7.280754
    41  O    7.377641   7.564268   2.002098   8.033764   7.914339
    42  O    6.922912   7.297436   2.580001   7.584588   7.236910
    43  H    6.483316   7.257617   3.445229   5.658765   5.433077
    44  H    6.669831   7.248399   3.169263   6.990186   6.506902
                   21         22         23         24         25
    21  H    0.000000
    22  H    1.794686   0.000000
    23  H    1.780271   1.787509   0.000000
    24  C    3.018528   2.839031   3.714520   0.000000
    25  H    3.296380   2.536806   3.843522   1.092110   0.000000
    26  H    2.782774   3.109148   3.965692   1.091296   1.797025
    27  H    4.003476   3.847685   4.564520   1.089809   1.809697
    28  C    3.740671   2.890463   2.947590   2.809778   2.847375
    29  H    4.536428   3.718948   3.979904   2.827188   2.886408
    30  H    4.192002   3.537864   3.042572   3.742806   3.901158
    31  H    3.757764   2.433347   2.892160   3.103516   2.758324
    32  N    6.839913   5.053491   6.287488   6.230451   5.227604
    33  H    7.748392   5.972321   7.239124   6.871541   5.850098
    34  C    7.220489   5.450420   6.363750   7.054529   6.141722
    35  H    6.403774   4.685796   5.439022   6.596864   5.764955
    36  C    8.259560   6.536616   7.480621   8.326848   7.372259
    37  C    8.085480   6.339222   7.026529   7.680978   6.848824
    38  H    9.109076   7.354278   8.393016   8.900886   7.904335
    39  H    8.717469   7.048965   7.778839   9.028903   8.131174
    40  H    7.936983   6.277779   7.337126   8.185068   7.210538
    41  O    8.893896   7.134404   7.919622   8.117070   7.263099
    42  O    8.243430   6.600338   6.949331   8.128735   7.416635
    43  H    6.306499   4.530841   5.717595   5.448488   4.490682
    44  H    7.495741   5.910812   6.141520   7.660671   6.996768
                   26         27         28         29         30
    26  H    0.000000
    27  H    1.798738   0.000000
    28  C    3.759707   3.059677   0.000000
    29  H    3.884295   2.694763   1.085445   0.000000
    30  H    4.615614   3.933354   1.084887   1.756097   0.000000
    31  H    4.015479   3.563345   1.092512   1.807263   1.813091
    32  N    6.929578   6.723675   5.390368   5.585735   6.004040
    33  H    7.596670   7.256424   6.095183   6.144024   6.721594
    34  C    7.773240   7.602141   5.740421   6.093817   6.125149
    35  H    7.275829   7.235797   5.168876   5.693505   5.477960
    36  C    8.949340   8.940195   7.191736   7.587779   7.574333
    37  C    8.531005   8.071305   5.950730   6.171257   6.165486
    38  H    9.552363   9.434065   7.842440   8.114471   8.270125
    39  H    9.658825   9.665474   7.662623   8.134860   7.909783
    40  H    8.690907   8.885739   7.361460   7.818977   7.826837
    41  O    9.014228   8.377453   6.481977   6.508421   6.748764
    42  O    8.994718   8.532162   6.038881   6.369315   6.017435
    43  H    6.238336   5.865109   4.479352   4.600355   5.116997
    44  H    8.478658   8.147334   5.540497   6.017254   5.473732
                   31         32         33         34         35
    31  H    0.000000
    32  N    4.360607   0.000000
    33  H    5.124141   1.020657   0.000000
    34  C    4.691672   1.451157   2.007245   0.000000
    35  H    4.110540   2.067862   2.902267   1.096211   0.000000
    36  C    6.121394   2.449512   2.673417   1.529707   2.162273
    37  C    5.028177   2.470322   2.598788   1.525450   2.143350
    38  H    6.792501   2.720165   2.514592   2.160463   3.066445
    39  H    6.614891   3.405790   3.669281   2.183181   2.514695
    40  H    6.269857   2.669499   3.026295   2.153360   2.498052
    41  O    5.633891   2.851375   2.539681   2.406766   3.234621
    42  O    5.204303   3.626167   3.913322   2.457619   2.556545
    43  H    3.497715   1.020811   1.626576   1.995335   2.310970
    44  H    4.690111   3.656535   4.177255   2.447516   2.117619
                   36         37         38         39         40
    36  C    0.000000
    37  C    2.473378   0.000000
    38  H    1.094838   2.708622   0.000000
    39  H    1.094137   2.721859   1.773252   0.000000
    40  H    1.091853   3.427087   1.775905   1.784234   0.000000
    41  O    3.146486   1.210476   2.952107   3.515104   4.116602
    42  O    3.247928   1.344852   3.674275   3.056706   4.189302
    43  H    3.315173   2.621664   3.632483   4.154283   3.598795
    44  H    3.327353   1.894604   4.004036   3.098286   4.097039
                   41         42         43         44
    41  O    0.000000
    42  O    2.207751   0.000000
    43  H    2.956674   3.640090   0.000000
    44  H    2.974332   0.970014   3.617058   0.000000
 Symmetry turned off by external request.
 Stoichiometry    C11H22N4O6S
 Framework group  C1[X(C11H22N4O6S)]
 Deg. of freedom   126
 Full point group                 C1      NOp   1
 Rotational constants (GHZ):      0.3124803      0.1371343      0.1026843
 Standard basis: 6-31G(d) (6D, 7F)
   378 basis functions,   728 primitive gaussians,   378 cartesian basis functions
    90 alpha electrons       90 beta electrons
       nuclear repulsion energy      2093.2138284894 Hartrees.
 NAtoms=   44 NActive=   44 NUniq=   44 SFac= 1.00D+00 NAtFMM=   60 NAOKFM=F Big=F
 Integral buffers will be    131072 words long.
 Raffenetti 2 integral format.
 Two-electron integral symmetry is turned off.
 One-electron integrals computed using PRISM.
 NBasis=   378 RedAO= T EigKep=  1.16D-03  NBF=   378
 NBsUse=   378 1.00D-06 EigRej= -1.00D+00 NBFU=   378
 ExpMin= 1.17D-01 ExpMax= 2.19D+04 ExpMxC= 3.30D+03 IAcc=1 IRadAn=         1 AccDes= 0.00D+00
 Harris functional with IExCor=  402 and IRadAn=       1 diagonalized for initial guess.
 HarFok:  IExCor=  402 AccDes= 0.00D+00 IRadAn=         1 IDoV= 1 UseB2=F ITyADJ=14
 ICtDFT=  3500011 ScaDFX=  1.000000  1.000000  1.000000  1.000000
 FoFCou: FMM=F IPFlag=           0 FMFlag=      100000 FMFlg1=           0
         NFxFlg=           0 DoJE=T BraDBF=F KetDBF=T FulRan=T
         wScrn=  0.000000 ICntrl=     500 IOpCl=  0 I1Cent=   200000004 NGrid=           0
         NMat0=    1 NMatS0=      1 NMatT0=    0 NMatD0=    1 NMtDS0=    0 NMtDT0=    0
 Symmetry not used in FoFCou.
 Keep R1 ints in memory in canonical form, NReq=2593217330.
 Requested convergence on RMS density matrix=1.00D-08 within 128 cycles.
 Requested convergence on MAX density matrix=1.00D-06.
 Requested convergence on             energy=1.00D-06.
 No special actions if energy rises.
 Integral accuracy reduced to 1.0D-05 until final iterations.
 Initial convergence to 1.0D-05 achieved.  Increase integral accuracy.
 SCF Done:  E(RB3LYP) =  -1500.97137385     A.U. after   14 cycles
            NFock= 14  Conv=0.77D-08     -V/T= 2.0073

 **********************************************************************

            Population analysis using the SCF density.

 **********************************************************************

 Alpha  occ. eigenvalues --  -88.98421 -19.19029 -19.13402 -19.12777 -19.10069
 Alpha  occ. eigenvalues --  -19.06820 -19.05841 -14.37687 -14.33646 -14.30199
 Alpha  occ. eigenvalues --  -14.30077 -10.31177 -10.29970 -10.28168 -10.27147
 Alpha  occ. eigenvalues --  -10.25098 -10.24957 -10.24139 -10.22125 -10.21083
 Alpha  occ. eigenvalues --  -10.19256 -10.18103  -8.04041  -6.00368  -6.00251
 Alpha  occ. eigenvalues --   -5.99711  -1.10168  -1.05245  -1.03680  -1.01739
 Alpha  occ. eigenvalues --   -0.96185  -0.94896  -0.93416  -0.91887  -0.89017
 Alpha  occ. eigenvalues --   -0.88379  -0.86013  -0.77528  -0.75194  -0.74264
 Alpha  occ. eigenvalues --   -0.73239  -0.65585  -0.64424  -0.64201  -0.63254
 Alpha  occ. eigenvalues --   -0.60374  -0.55990  -0.55057  -0.54338  -0.52360
 Alpha  occ. eigenvalues --   -0.51727  -0.49880  -0.49248  -0.49042  -0.48852
 Alpha  occ. eigenvalues --   -0.47893  -0.45808  -0.45758  -0.44965  -0.44443
 Alpha  occ. eigenvalues --   -0.44096  -0.43868  -0.43327  -0.42569  -0.42129
 Alpha  occ. eigenvalues --   -0.41547  -0.40641  -0.40412  -0.40276  -0.39440
 Alpha  occ. eigenvalues --   -0.39099  -0.38264  -0.37763  -0.36758  -0.36721
 Alpha  occ. eigenvalues --   -0.35280  -0.34406  -0.34098  -0.33636  -0.31446
 Alpha  occ. eigenvalues --   -0.27814  -0.26293  -0.26124  -0.25374  -0.24082
 Alpha  occ. eigenvalues --   -0.23755  -0.23313  -0.22797  -0.22539  -0.20434
 Alpha virt. eigenvalues --   -0.01928   0.00748   0.01197   0.01640   0.02354
 Alpha virt. eigenvalues --    0.05206   0.07075   0.07751   0.08952   0.10010
 Alpha virt. eigenvalues --    0.10262   0.10740   0.11198   0.11604   0.12670
 Alpha virt. eigenvalues --    0.12767   0.13844   0.14495   0.15086   0.15264
 Alpha virt. eigenvalues --    0.15901   0.16407   0.16796   0.17086   0.18004
 Alpha virt. eigenvalues --    0.18398   0.18954   0.19073   0.21605   0.22237
 Alpha virt. eigenvalues --    0.23000   0.24928   0.25168   0.26627   0.27351
 Alpha virt. eigenvalues --    0.30138   0.31940   0.33739   0.34249   0.34956
 Alpha virt. eigenvalues --    0.36752   0.37507   0.38464   0.39181   0.40553
 Alpha virt. eigenvalues --    0.41389   0.41818   0.42867   0.45509   0.46638
 Alpha virt. eigenvalues --    0.49069   0.49959   0.50575   0.52539   0.52777
 Alpha virt. eigenvalues --    0.53872   0.54071   0.54801   0.55412   0.56591
 Alpha virt. eigenvalues --    0.57351   0.57483   0.58949   0.59160   0.59503
 Alpha virt. eigenvalues --    0.60943   0.61633   0.62587   0.62822   0.63803
 Alpha virt. eigenvalues --    0.64930   0.65313   0.65827   0.66930   0.67631
 Alpha virt. eigenvalues --    0.68816   0.68831   0.69989   0.71309   0.72295
 Alpha virt. eigenvalues --    0.73305   0.74328   0.74392   0.76441   0.77478
 Alpha virt. eigenvalues --    0.78261   0.79413   0.80542   0.80576   0.81070
 Alpha virt. eigenvalues --    0.81343   0.81928   0.82797   0.83068   0.83214
 Alpha virt. eigenvalues --    0.83763   0.84790   0.85218   0.85995   0.86344
 Alpha virt. eigenvalues --    0.86589   0.87510   0.87956   0.88822   0.89348
 Alpha virt. eigenvalues --    0.89733   0.90189   0.91243   0.91465   0.92242
 Alpha virt. eigenvalues --    0.93011   0.93431   0.94621   0.96643   0.97104
 Alpha virt. eigenvalues --    0.97507   0.98090   0.99012   0.99548   0.99918
 Alpha virt. eigenvalues --    1.00753   1.02004   1.02322   1.03779   1.04276
 Alpha virt. eigenvalues --    1.05349   1.07206   1.08387   1.09524   1.10367
 Alpha virt. eigenvalues --    1.11103   1.12175   1.14372   1.16493   1.18196
 Alpha virt. eigenvalues --    1.18865   1.19624   1.21048   1.22567   1.25311
 Alpha virt. eigenvalues --    1.25776   1.26629   1.28484   1.29642   1.31514
 Alpha virt. eigenvalues --    1.32886   1.34676   1.36467   1.36633   1.38916
 Alpha virt. eigenvalues --    1.39603   1.41216   1.41960   1.42169   1.44509
 Alpha virt. eigenvalues --    1.46146   1.46180   1.46995   1.47121   1.49386
 Alpha virt. eigenvalues --    1.49957   1.51809   1.52967   1.55716   1.57571
 Alpha virt. eigenvalues --    1.60855   1.61969   1.64080   1.64812   1.65317
 Alpha virt. eigenvalues --    1.67518   1.68143   1.70828   1.71913   1.72659
 Alpha virt. eigenvalues --    1.73186   1.74374   1.75220   1.76245   1.77226
 Alpha virt. eigenvalues --    1.78393   1.79413   1.79645   1.80685   1.81428
 Alpha virt. eigenvalues --    1.83039   1.84669   1.85120   1.86850   1.87962
 Alpha virt. eigenvalues --    1.88741   1.90144   1.91451   1.92913   1.93929
 Alpha virt. eigenvalues --    1.95134   1.95591   1.97064   1.97768   1.98906
 Alpha virt. eigenvalues --    2.00148   2.01352   2.02703   2.03934   2.04654
 Alpha virt. eigenvalues --    2.05108   2.06775   2.09019   2.09852   2.14531
 Alpha virt. eigenvalues --    2.16797   2.17639   2.18118   2.18254   2.18823
 Alpha virt. eigenvalues --    2.19939   2.20075   2.20549   2.20951   2.21239
 Alpha virt. eigenvalues --    2.21749   2.22482   2.23237   2.26189   2.27316
 Alpha virt. eigenvalues --    2.29572   2.30968   2.33224   2.35295   2.36049
 Alpha virt. eigenvalues --    2.36949   2.37562   2.42555   2.45224   2.45646
 Alpha virt. eigenvalues --    2.46585   2.50501   2.53418   2.56156   2.56710
 Alpha virt. eigenvalues --    2.60586   2.62893   2.64368   2.65882   2.66733
 Alpha virt. eigenvalues --    2.68309   2.71385   2.71956   2.74079   2.75017
 Alpha virt. eigenvalues --    2.76172   2.77004   2.81502   2.83790   2.86534
 Alpha virt. eigenvalues --    2.91837   2.92828   3.01330   3.01575   3.05116
 Alpha virt. eigenvalues --    3.06679   3.08231   3.08304   3.20606   3.27505
 Alpha virt. eigenvalues --    3.45725   3.80269   3.83475   3.88423   3.95202
 Alpha virt. eigenvalues --    3.97853   4.01975   4.07197   4.09179   4.14882
 Alpha virt. eigenvalues --    4.18164   4.20192   4.22223   4.25136   4.26868
 Alpha virt. eigenvalues --    4.28479   4.33216   4.34247   4.35729   4.37547
 Alpha virt. eigenvalues --    4.56748   4.63013   4.67125
          Condensed to atoms (all electrons):
               1          2          3          4          5          6
     1  C    4.162850   0.418041   0.278189   0.441909  -0.013630  -0.000003
     2  O    0.418041   8.316895  -0.102473  -0.084451   0.018243  -0.000000
     3  O    0.278189  -0.102473   8.297375  -0.084951   0.214890  -0.000000
     4  O    0.441909  -0.084451  -0.084951   8.257611   0.006436   0.000003
     5  H   -0.013630   0.018243   0.214890   0.006436   0.389259   0.000000
     6  C   -0.000003  -0.000000  -0.000000   0.000003   0.000000   4.198812
     7  C   -0.000012  -0.000000  -0.000001  -0.000003  -0.000000  -0.026259
     8  C   -0.000000   0.000000  -0.000000   0.000000   0.000000  -0.034107
     9  N   -0.000000   0.000000  -0.000000  -0.000000   0.000000   0.270139
    10  H    0.000000  -0.000000   0.000000   0.000000  -0.000000   0.000845
    11  H   -0.000000   0.000000   0.000000  -0.000000   0.000000   0.002181
    12  O   -0.000000  -0.000000  -0.000000  -0.000000   0.000000   0.497217
    13  N   -0.000102  -0.000013  -0.000001  -0.000163  -0.000000   0.404142
    14  C    0.000185   0.000008   0.000093  -0.000168  -0.000000  -0.026752
    15  N    0.005090  -0.000021   0.000442  -0.037276   0.000048   0.003133
    16  H   -0.005201  -0.000055  -0.000677   0.091935  -0.000059  -0.000094
    17  H   -0.000007  -0.000000   0.000281   0.000613  -0.000008  -0.000155
    18  H    0.000000   0.000000  -0.000000   0.000000   0.000000  -0.014217
    19  S   -0.002437   0.056923   0.001088   0.007111  -0.000197   0.000169
    20  C    0.000108   0.000933   0.000000   0.000008  -0.000000  -0.000005
    21  H    0.000001   0.000003   0.000000   0.000001  -0.000000   0.000000
    22  H   -0.000002  -0.000006  -0.000000  -0.000001   0.000000  -0.000004
    23  H   -0.000001   0.000004   0.000000   0.000002  -0.000000  -0.000000
    24  C    0.000773  -0.025240  -0.000020   0.000006  -0.000005  -0.000001
    25  H   -0.000011   0.000248   0.000000   0.000003   0.000000  -0.000003
    26  H   -0.000015   0.000496   0.000000  -0.000000  -0.000000   0.000000
    27  H   -0.000493   0.025104   0.000006   0.000241   0.000055  -0.000000
    28  C   -0.003390  -0.019130  -0.000148  -0.007241   0.000011  -0.001552
    29  H    0.001168   0.017897  -0.000650  -0.006711   0.000084   0.000182
    30  H   -0.001205  -0.000604   0.000114   0.014367  -0.000014   0.000009
    31  H    0.000382   0.000297   0.000002   0.000816  -0.000001   0.001679
    32  N   -0.000000  -0.000000  -0.000000  -0.000000   0.000000   0.000720
    33  H    0.000000   0.000000  -0.000000   0.000000  -0.000000   0.000035
    34  C    0.000000   0.000000   0.000000  -0.000000  -0.000000  -0.000510
    35  H   -0.000000  -0.000000  -0.000000   0.000000  -0.000000  -0.000134
    36  C    0.000000   0.000000   0.000000  -0.000000  -0.000000   0.000018
    37  C    0.000000  -0.000000   0.000000  -0.000000  -0.000000   0.002343
    38  H   -0.000000   0.000000   0.000000   0.000000  -0.000000   0.000000
    39  H    0.000000   0.000000   0.000000   0.000000  -0.000000  -0.000001
    40  H    0.000000  -0.000000  -0.000000   0.000000   0.000000  -0.000000
    41  O   -0.000000  -0.000000  -0.000000  -0.000000   0.000000  -0.002354
    42  O   -0.000000  -0.000000  -0.000000   0.000000   0.000000   0.002360
    43  H   -0.000000   0.000000   0.000000   0.000000  -0.000000   0.000369
    44  H    0.000000  -0.000000   0.000000   0.000000  -0.000000  -0.000047
               7          8          9         10         11         12
     1  C   -0.000012  -0.000000  -0.000000   0.000000  -0.000000  -0.000000
     2  O   -0.000000   0.000000   0.000000  -0.000000   0.000000  -0.000000
     3  O   -0.000001  -0.000000  -0.000000   0.000000   0.000000  -0.000000
     4  O   -0.000003   0.000000  -0.000000   0.000000  -0.000000  -0.000000
     5  H   -0.000000   0.000000   0.000000  -0.000000   0.000000   0.000000
     6  C   -0.026259  -0.034107   0.270139   0.000845   0.002181   0.497217
     7  C    5.094205   0.593614  -0.029726   0.352060  -0.037371   0.000666
     8  C    0.593614   4.720796   0.340233  -0.040649   0.368947   0.002382
     9  N   -0.029726   0.340233   7.084015   0.003680  -0.045920  -0.094334
    10  H    0.352060  -0.040649   0.003680   0.571764  -0.004061   0.000007
    11  H   -0.037371   0.368947  -0.045920  -0.004061   0.544924  -0.000120
    12  O    0.000666   0.002382  -0.094334   0.000007  -0.000120   8.238470
    13  N   -0.052544  -0.021148  -0.103276   0.004185  -0.000300  -0.083812
    14  C    0.417059  -0.024132  -0.021801  -0.026210   0.003327   0.000597
    15  N   -0.092261   0.003943   0.000146  -0.004320  -0.000139  -0.000037
    16  H    0.004471  -0.000038   0.000019  -0.000158   0.000002  -0.000016
    17  H   -0.002448   0.000223   0.000030   0.003393  -0.000003   0.000001
    18  H    0.002796  -0.023747   0.254624  -0.000071  -0.003840  -0.000820
    19  S    0.000005  -0.000000   0.000004  -0.000000   0.000000   0.000130
    20  C   -0.000000  -0.000000  -0.000000   0.000000  -0.000000  -0.000008
    21  H    0.000000   0.000000   0.000000  -0.000000  -0.000000  -0.000000
    22  H   -0.000000   0.000000  -0.000000   0.000000  -0.000000  -0.000017
    23  H   -0.000000  -0.000000  -0.000000   0.000000  -0.000000   0.000001
    24  C   -0.000000  -0.000000  -0.000000   0.000000  -0.000000   0.000001
    25  H   -0.000000   0.000000  -0.000000   0.000000  -0.000000  -0.000005
    26  H    0.000000   0.000000   0.000000  -0.000000   0.000000   0.000000
    27  H    0.000000  -0.000000  -0.000000   0.000000   0.000000   0.000000
    28  C    0.000054   0.000005  -0.000003  -0.000000   0.000000  -0.006008
    29  H   -0.000019  -0.000000   0.000011  -0.000000   0.000000  -0.000160
    30  H    0.000039  -0.000001   0.000011  -0.000000   0.000000  -0.000207
    31  H   -0.000007  -0.000011   0.000174   0.000000   0.000000   0.018644
    32  N    0.000000  -0.000002   0.000003   0.000000  -0.000000  -0.011383
    33  H    0.000000  -0.000000   0.000028  -0.000000  -0.000000   0.000194
    34  C    0.000000  -0.000013  -0.000557   0.000000   0.000000  -0.000900
    35  H   -0.000000  -0.000001   0.000116  -0.000000   0.000000   0.002681
    36  C   -0.000000   0.000000  -0.000003  -0.000000   0.000000   0.000494
    37  C   -0.000010   0.000350  -0.002710  -0.000000  -0.000022   0.021396
    38  H    0.000000  -0.000000   0.000001  -0.000000  -0.000000  -0.000002
    39  H    0.000000   0.000000   0.000000  -0.000000  -0.000000   0.000004
    40  H    0.000000  -0.000000   0.000000   0.000000  -0.000000  -0.000001
    41  O   -0.000007   0.000095  -0.015185   0.000000   0.000042  -0.003911
    42  O   -0.000006  -0.000072   0.001796  -0.000000   0.000007  -0.008551
    43  H   -0.000000   0.000002  -0.000165  -0.000000   0.000000   0.026035
    44  H    0.000002   0.000002  -0.000235  -0.000000   0.000000   0.007407
              13         14         15         16         17         18
     1  C   -0.000102   0.000185   0.005090  -0.005201  -0.000007   0.000000
     2  O   -0.000013   0.000008  -0.000021  -0.000055  -0.000000   0.000000
     3  O   -0.000001   0.000093   0.000442  -0.000677   0.000281  -0.000000
     4  O   -0.000163  -0.000168  -0.037276   0.091935   0.000613   0.000000
     5  H   -0.000000  -0.000000   0.000048  -0.000059  -0.000008   0.000000
     6  C    0.404142  -0.026752   0.003133  -0.000094  -0.000155  -0.014217
     7  C   -0.052544   0.417059  -0.092261   0.004471  -0.002448   0.002796
     8  C   -0.021148  -0.024132   0.003943  -0.000038   0.000223  -0.023747
     9  N   -0.103276  -0.021801   0.000146   0.000019   0.000030   0.254624
    10  H    0.004185  -0.026210  -0.004320  -0.000158   0.003393  -0.000071
    11  H   -0.000300   0.003327  -0.000139   0.000002  -0.000003  -0.003840
    12  O   -0.083812   0.000597  -0.000037  -0.000016   0.000001  -0.000820
    13  N    7.074960   0.447829  -0.089856   0.003271   0.004163   0.003148
    14  C    0.447829   4.355520   0.353183  -0.004947  -0.027742   0.000922
    15  N   -0.089856   0.353183   7.150861   0.193672   0.316305   0.000015
    16  H    0.003271  -0.004947   0.193672   0.309601  -0.013171  -0.000001
    17  H    0.004163  -0.027742   0.316305  -0.013171   0.384549  -0.000000
    18  H    0.003148   0.000922   0.000015  -0.000001  -0.000000   0.341813
    19  S    0.002566   0.000066  -0.000022   0.000086   0.000000  -0.000000
    20  C   -0.000014  -0.000000  -0.000000   0.000001  -0.000000   0.000000
    21  H    0.000000   0.000000  -0.000000   0.000000  -0.000000  -0.000000
    22  H   -0.000004  -0.000000   0.000000  -0.000000  -0.000000   0.000000
    23  H   -0.000005  -0.000000   0.000000  -0.000000  -0.000000   0.000000
    24  C   -0.000021  -0.000000   0.000000  -0.000003   0.000000   0.000000
    25  H   -0.000007  -0.000000   0.000000   0.000000  -0.000000   0.000000
    26  H    0.000000   0.000000   0.000000  -0.000000  -0.000000  -0.000000
    27  H   -0.000002  -0.000000   0.000001  -0.000010  -0.000000   0.000000
    28  C   -0.003573  -0.000638  -0.000580   0.000393   0.000012  -0.000002
    29  H    0.002108   0.000496   0.000549  -0.000847  -0.000008  -0.000000
    30  H    0.003704  -0.000161   0.000419   0.000361  -0.000001  -0.000000
    31  H   -0.004840   0.000171   0.000035  -0.000027   0.000001   0.000000
    32  N   -0.000000   0.000000  -0.000000  -0.000000   0.000000  -0.000261
    33  H    0.000000   0.000000   0.000000   0.000000  -0.000000  -0.000155
    34  C    0.000001  -0.000000   0.000000   0.000000  -0.000000   0.002214
    35  H   -0.000007   0.000000   0.000000  -0.000000   0.000000  -0.000262
    36  C    0.000000  -0.000000   0.000000   0.000000  -0.000000   0.000019
    37  C    0.000125  -0.000008   0.000000   0.000000  -0.000000   0.002214
    38  H    0.000000   0.000000  -0.000000  -0.000000  -0.000000  -0.000012
    39  H    0.000000  -0.000000  -0.000000   0.000000  -0.000000  -0.000000
    40  H   -0.000000  -0.000000  -0.000000  -0.000000   0.000000   0.000000
    41  O   -0.000010   0.000000  -0.000000  -0.000000   0.000000   0.051195
    42  O   -0.000044   0.000007   0.000000  -0.000000   0.000000  -0.004050
    43  H   -0.000006  -0.000003   0.000000   0.000000  -0.000000   0.000068
    44  H   -0.000058  -0.000003   0.000000   0.000000  -0.000000  -0.000044
              19         20         21         22         23         24
     1  C   -0.002437   0.000108   0.000001  -0.000002  -0.000001   0.000773
     2  O    0.056923   0.000933   0.000003  -0.000006   0.000004  -0.025240
     3  O    0.001088   0.000000   0.000000  -0.000000   0.000000  -0.000020
     4  O    0.007111   0.000008   0.000001  -0.000001   0.000002   0.000006
     5  H   -0.000197  -0.000000  -0.000000   0.000000  -0.000000  -0.000005
     6  C    0.000169  -0.000005   0.000000  -0.000004  -0.000000  -0.000001
     7  C    0.000005  -0.000000   0.000000  -0.000000  -0.000000  -0.000000
     8  C   -0.000000  -0.000000   0.000000   0.000000  -0.000000  -0.000000
     9  N    0.000004  -0.000000   0.000000  -0.000000  -0.000000  -0.000000
    10  H   -0.000000   0.000000  -0.000000   0.000000   0.000000   0.000000
    11  H    0.000000  -0.000000  -0.000000  -0.000000  -0.000000  -0.000000
    12  O    0.000130  -0.000008  -0.000000  -0.000017   0.000001   0.000001
    13  N    0.002566  -0.000014   0.000000  -0.000004  -0.000005  -0.000021
    14  C    0.000066  -0.000000   0.000000  -0.000000  -0.000000  -0.000000
    15  N   -0.000022  -0.000000  -0.000000   0.000000   0.000000   0.000000
    16  H    0.000086   0.000001   0.000000  -0.000000  -0.000000  -0.000003
    17  H    0.000000  -0.000000  -0.000000  -0.000000  -0.000000   0.000000
    18  H   -0.000000   0.000000  -0.000000   0.000000   0.000000   0.000000
    19  S   14.946920   0.187711  -0.029658  -0.022468  -0.031455   0.262382
    20  C    0.187711   5.429954   0.364758   0.355581   0.371377  -0.037772
    21  H   -0.029658   0.364758   0.503283  -0.024555  -0.020057  -0.001012
    22  H   -0.022468   0.355581  -0.024555   0.506445  -0.022538  -0.005888
    23  H   -0.031455   0.371377  -0.020057  -0.022538   0.483136   0.003042
    24  C    0.262382  -0.037772  -0.001012  -0.005888   0.003042   5.379853
    25  H   -0.033913  -0.006005  -0.000294   0.006415  -0.000007   0.357448
    26  H   -0.030858  -0.000185   0.002134  -0.000411  -0.000003   0.359581
    27  H   -0.035195   0.002635  -0.000020   0.000019  -0.000066   0.351434
    28  C    0.216008  -0.037966   0.002697  -0.003704  -0.000264  -0.027172
    29  H   -0.037352   0.002035  -0.000085   0.000129   0.000007  -0.002265
    30  H   -0.029796   0.000789  -0.000044  -0.000192   0.001006   0.002295
    31  H   -0.034292  -0.005167   0.000181   0.005452  -0.000298  -0.002595
    32  N    0.000000  -0.000000   0.000000   0.000001   0.000000  -0.000000
    33  H   -0.000000   0.000000   0.000000  -0.000000   0.000000   0.000000
    34  C   -0.000000  -0.000000   0.000000  -0.000000   0.000000   0.000000
    35  H   -0.000000   0.000000  -0.000000   0.000004   0.000000   0.000000
    36  C    0.000000   0.000000   0.000000  -0.000000  -0.000000  -0.000000
    37  C   -0.000000   0.000000   0.000000   0.000000  -0.000000  -0.000000
    38  H   -0.000000  -0.000000  -0.000000   0.000000   0.000000   0.000000
    39  H   -0.000000   0.000000   0.000000  -0.000000  -0.000000   0.000000
    40  H   -0.000000  -0.000000  -0.000000  -0.000000  -0.000000  -0.000000
    41  O    0.000000  -0.000000  -0.000000   0.000000   0.000000   0.000000
    42  O    0.000000  -0.000000  -0.000000  -0.000000   0.000000   0.000000
    43  H   -0.000001  -0.000000  -0.000000   0.000005  -0.000000  -0.000000
    44  H   -0.000000   0.000000   0.000000  -0.000000  -0.000000   0.000000
              25         26         27         28         29         30
     1  C   -0.000011  -0.000015  -0.000493  -0.003390   0.001168  -0.001205
     2  O    0.000248   0.000496   0.025104  -0.019130   0.017897  -0.000604
     3  O    0.000000   0.000000   0.000006  -0.000148  -0.000650   0.000114
     4  O    0.000003  -0.000000   0.000241  -0.007241  -0.006711   0.014367
     5  H    0.000000  -0.000000   0.000055   0.000011   0.000084  -0.000014
     6  C   -0.000003   0.000000  -0.000000  -0.001552   0.000182   0.000009
     7  C   -0.000000   0.000000   0.000000   0.000054  -0.000019   0.000039
     8  C    0.000000   0.000000  -0.000000   0.000005  -0.000000  -0.000001
     9  N   -0.000000   0.000000  -0.000000  -0.000003   0.000011   0.000011
    10  H    0.000000  -0.000000   0.000000  -0.000000  -0.000000  -0.000000
    11  H   -0.000000   0.000000   0.000000   0.000000   0.000000   0.000000
    12  O   -0.000005   0.000000   0.000000  -0.006008  -0.000160  -0.000207
    13  N   -0.000007   0.000000  -0.000002  -0.003573   0.002108   0.003704
    14  C   -0.000000   0.000000  -0.000000  -0.000638   0.000496  -0.000161
    15  N    0.000000   0.000000   0.000001  -0.000580   0.000549   0.000419
    16  H    0.000000  -0.000000  -0.000010   0.000393  -0.000847   0.000361
    17  H   -0.000000  -0.000000  -0.000000   0.000012  -0.000008  -0.000001
    18  H    0.000000  -0.000000   0.000000  -0.000002  -0.000000  -0.000000
    19  S   -0.033913  -0.030858  -0.035195   0.216008  -0.037352  -0.029796
    20  C   -0.006005  -0.000185   0.002635  -0.037966   0.002035   0.000789
    21  H   -0.000294   0.002134  -0.000020   0.002697  -0.000085  -0.000044
    22  H    0.006415  -0.000411   0.000019  -0.003704   0.000129  -0.000192
    23  H   -0.000007  -0.000003  -0.000066  -0.000264   0.000007   0.001006
    24  C    0.357448   0.359581   0.351434  -0.027172  -0.002265   0.002295
    25  H    0.520141  -0.025293  -0.016700  -0.002872  -0.000142   0.000018
    26  H   -0.025293   0.511236  -0.013723   0.002204   0.000142  -0.000058
    27  H   -0.016700  -0.013723   0.409045  -0.001142   0.002011   0.000036
    28  C   -0.002872   0.002204  -0.001142   5.422506   0.367354   0.362581
    29  H   -0.000142   0.000142   0.002011   0.367354   0.449997  -0.014157
    30  H    0.000018  -0.000058   0.000036   0.362581  -0.014157   0.422353
    31  H    0.003335  -0.000031  -0.000085   0.325659  -0.017947  -0.015331
    32  N    0.000000   0.000000  -0.000000  -0.000002   0.000000  -0.000000
    33  H   -0.000000   0.000000   0.000000   0.000000  -0.000000   0.000000
    34  C   -0.000000  -0.000000   0.000000  -0.000000   0.000000   0.000000
    35  H   -0.000000   0.000000  -0.000000  -0.000005   0.000000  -0.000000
    36  C    0.000000  -0.000000  -0.000000   0.000000   0.000000   0.000000
    37  C    0.000000  -0.000000   0.000000   0.000002   0.000000   0.000000
    38  H   -0.000000  -0.000000   0.000000  -0.000000  -0.000000  -0.000000
    39  H   -0.000000  -0.000000   0.000000   0.000000  -0.000000   0.000000
    40  H    0.000000  -0.000000   0.000000   0.000000  -0.000000  -0.000000
    41  O   -0.000000   0.000000  -0.000000  -0.000000   0.000000  -0.000000
    42  O   -0.000000   0.000000   0.000000  -0.000000  -0.000000   0.000000
    43  H    0.000010  -0.000000  -0.000000  -0.000014  -0.000003   0.000000
    44  H   -0.000000  -0.000000  -0.000000   0.000001   0.000000  -0.000000
              31         32         33         34         35         36
     1  C    0.000382  -0.000000   0.000000   0.000000  -0.000000   0.000000
     2  O    0.000297  -0.000000   0.000000   0.000000  -0.000000   0.000000
     3  O    0.000002  -0.000000  -0.000000   0.000000  -0.000000   0.000000
     4  O    0.000816  -0.000000   0.000000  -0.000000   0.000000  -0.000000
     5  H   -0.000001   0.000000  -0.000000  -0.000000  -0.000000  -0.000000
     6  C    0.001679   0.000720   0.000035  -0.000510  -0.000134   0.000018
     7  C   -0.000007   0.000000   0.000000   0.000000  -0.000000  -0.000000
     8  C   -0.000011  -0.000002  -0.000000  -0.000013  -0.000001   0.000000
     9  N    0.000174   0.000003   0.000028  -0.000557   0.000116  -0.000003
    10  H    0.000000   0.000000  -0.000000   0.000000  -0.000000  -0.000000
    11  H    0.000000  -0.000000  -0.000000   0.000000   0.000000   0.000000
    12  O    0.018644  -0.011383   0.000194  -0.000900   0.002681   0.000494
    13  N   -0.004840  -0.000000   0.000000   0.000001  -0.000007   0.000000
    14  C    0.000171   0.000000   0.000000  -0.000000   0.000000  -0.000000
    15  N    0.000035  -0.000000   0.000000   0.000000   0.000000   0.000000
    16  H   -0.000027  -0.000000   0.000000   0.000000  -0.000000   0.000000
    17  H    0.000001   0.000000  -0.000000  -0.000000   0.000000  -0.000000
    18  H    0.000000  -0.000261  -0.000155   0.002214  -0.000262   0.000019
    19  S   -0.034292   0.000000  -0.000000  -0.000000  -0.000000   0.000000
    20  C   -0.005167  -0.000000   0.000000  -0.000000   0.000000   0.000000
    21  H    0.000181   0.000000   0.000000   0.000000  -0.000000   0.000000
    22  H    0.005452   0.000001  -0.000000  -0.000000   0.000004  -0.000000
    23  H   -0.000298   0.000000   0.000000   0.000000   0.000000  -0.000000
    24  C   -0.002595  -0.000000   0.000000   0.000000   0.000000  -0.000000
    25  H    0.003335   0.000000  -0.000000  -0.000000  -0.000000   0.000000
    26  H   -0.000031   0.000000   0.000000  -0.000000   0.000000  -0.000000
    27  H   -0.000085  -0.000000   0.000000   0.000000  -0.000000  -0.000000
    28  C    0.325659  -0.000002   0.000000  -0.000000  -0.000005   0.000000
    29  H   -0.017947   0.000000  -0.000000   0.000000   0.000000   0.000000
    30  H   -0.015331  -0.000000   0.000000   0.000000  -0.000000   0.000000
    31  H    0.521437  -0.000020  -0.000000  -0.000014   0.000064  -0.000000
    32  N   -0.000020   6.914643   0.307836   0.347266  -0.039229  -0.057480
    33  H   -0.000000   0.307836   0.454958  -0.049414   0.007843  -0.005041
    34  C   -0.000014   0.347266  -0.049414   5.044370   0.359187   0.340509
    35  H    0.000064  -0.039229   0.007843   0.359187   0.621281  -0.039365
    36  C   -0.000000  -0.057480  -0.005041   0.340509  -0.039365   5.138109
    37  C   -0.000011  -0.052487  -0.005182   0.299379  -0.048913  -0.038493
    38  H    0.000000  -0.004020   0.005877  -0.032479   0.005674   0.371649
    39  H   -0.000000   0.004384  -0.000123  -0.032007  -0.002264   0.364240
    40  H   -0.000000   0.002644  -0.000779  -0.026133  -0.005457   0.367811
    41  O    0.000000  -0.009206   0.013211  -0.080812   0.003059  -0.003151
    42  O    0.000001   0.003224   0.000319  -0.074589   0.002115   0.000265
    43  H    0.000349   0.305225  -0.028351  -0.049549  -0.005522   0.006972
    44  H   -0.000003   0.000178  -0.000015   0.004690   0.006116   0.000088
              37         38         39         40         41         42
     1  C    0.000000  -0.000000   0.000000   0.000000  -0.000000  -0.000000
     2  O   -0.000000   0.000000   0.000000  -0.000000  -0.000000  -0.000000
     3  O    0.000000   0.000000   0.000000  -0.000000  -0.000000  -0.000000
     4  O   -0.000000   0.000000   0.000000   0.000000  -0.000000   0.000000
     5  H   -0.000000  -0.000000  -0.000000   0.000000   0.000000   0.000000
     6  C    0.002343   0.000000  -0.000001  -0.000000  -0.002354   0.002360
     7  C   -0.000010   0.000000   0.000000   0.000000  -0.000007  -0.000006
     8  C    0.000350  -0.000000   0.000000  -0.000000   0.000095  -0.000072
     9  N   -0.002710   0.000001   0.000000   0.000000  -0.015185   0.001796
    10  H   -0.000000  -0.000000  -0.000000   0.000000   0.000000  -0.000000
    11  H   -0.000022  -0.000000  -0.000000  -0.000000   0.000042   0.000007
    12  O    0.021396  -0.000002   0.000004  -0.000001  -0.003911  -0.008551
    13  N    0.000125   0.000000   0.000000  -0.000000  -0.000010  -0.000044
    14  C   -0.000008   0.000000  -0.000000  -0.000000   0.000000   0.000007
    15  N    0.000000  -0.000000  -0.000000  -0.000000  -0.000000   0.000000
    16  H    0.000000  -0.000000   0.000000  -0.000000  -0.000000  -0.000000
    17  H   -0.000000  -0.000000  -0.000000   0.000000   0.000000   0.000000
    18  H    0.002214  -0.000012  -0.000000   0.000000   0.051195  -0.004050
    19  S   -0.000000  -0.000000  -0.000000  -0.000000   0.000000   0.000000
    20  C    0.000000  -0.000000   0.000000  -0.000000  -0.000000  -0.000000
    21  H    0.000000  -0.000000   0.000000  -0.000000  -0.000000  -0.000000
    22  H    0.000000   0.000000  -0.000000  -0.000000   0.000000  -0.000000
    23  H   -0.000000   0.000000  -0.000000  -0.000000   0.000000   0.000000
    24  C   -0.000000   0.000000   0.000000  -0.000000   0.000000   0.000000
    25  H    0.000000  -0.000000  -0.000000   0.000000  -0.000000  -0.000000
    26  H   -0.000000  -0.000000  -0.000000  -0.000000   0.000000   0.000000
    27  H    0.000000   0.000000   0.000000   0.000000  -0.000000   0.000000
    28  C    0.000002  -0.000000   0.000000   0.000000  -0.000000  -0.000000
    29  H    0.000000  -0.000000  -0.000000  -0.000000   0.000000  -0.000000
    30  H    0.000000  -0.000000   0.000000  -0.000000  -0.000000   0.000000
    31  H   -0.000011   0.000000  -0.000000  -0.000000   0.000000   0.000001
    32  N   -0.052487  -0.004020   0.004384   0.002644  -0.009206   0.003224
    33  H   -0.005182   0.005877  -0.000123  -0.000779   0.013211   0.000319
    34  C    0.299379  -0.032479  -0.032007  -0.026133  -0.080812  -0.074589
    35  H   -0.048913   0.005674  -0.002264  -0.005457   0.003059   0.002115
    36  C   -0.038493   0.371649   0.364240   0.367811  -0.003151   0.000265
    37  C    4.469391  -0.007194  -0.000251   0.004995   0.521447   0.224062
    38  H   -0.007194   0.553107  -0.028670  -0.027771   0.004000   0.000152
    39  H   -0.000251  -0.028670   0.572915  -0.026357  -0.000146   0.002651
    40  H    0.004995  -0.027771  -0.026357   0.544777  -0.000019  -0.000128
    41  O    0.521447   0.004000  -0.000146  -0.000019   8.100555  -0.078299
    42  O    0.224062   0.000152   0.002651  -0.000128  -0.078299   8.277123
    43  H    0.002425  -0.000127  -0.000220  -0.000115   0.000706   0.000257
    44  H   -0.021007   0.000022  -0.000015  -0.000036   0.004476   0.227585
              43         44
     1  C   -0.000000   0.000000
     2  O    0.000000  -0.000000
     3  O    0.000000   0.000000
     4  O    0.000000   0.000000
     5  H   -0.000000  -0.000000
     6  C    0.000369  -0.000047
     7  C   -0.000000   0.000002
     8  C    0.000002   0.000002
     9  N   -0.000165  -0.000235
    10  H   -0.000000  -0.000000
    11  H    0.000000   0.000000
    12  O    0.026035   0.007407
    13  N   -0.000006  -0.000058
    14  C   -0.000003  -0.000003
    15  N    0.000000   0.000000
    16  H    0.000000   0.000000
    17  H   -0.000000  -0.000000
    18  H    0.000068  -0.000044
    19  S   -0.000001  -0.000000
    20  C   -0.000000   0.000000
    21  H   -0.000000   0.000000
    22  H    0.000005  -0.000000
    23  H   -0.000000  -0.000000
    24  C   -0.000000   0.000000
    25  H    0.000010  -0.000000
    26  H   -0.000000  -0.000000
    27  H   -0.000000  -0.000000
    28  C   -0.000014   0.000001
    29  H   -0.000003   0.000000
    30  H    0.000000  -0.000000
    31  H    0.000349  -0.000003
    32  N    0.305225   0.000178
    33  H   -0.028351  -0.000015
    34  C   -0.049549   0.004690
    35  H   -0.005522   0.006116
    36  C    0.006972   0.000088
    37  C    0.002425  -0.021007
    38  H   -0.000127   0.000022
    39  H   -0.000220  -0.000015
    40  H   -0.000115  -0.000036
    41  O    0.000706   0.004476
    42  O    0.000257   0.227585
    43  H    0.420663  -0.000129
    44  H   -0.000129   0.352416
 Mulliken charges:
               1
     1  C    0.717814
     2  O   -0.623099
     3  O   -0.603559
     4  O   -0.600093
     5  H    0.384888
     6  C    0.721844
     7  C   -0.224298
     8  C    0.113329
     9  N   -0.641115
    10  H    0.139535
    11  H    0.172345
    12  O   -0.606032
    13  N   -0.590396
    14  C    0.553102
    15  N   -0.803331
    16  H    0.421496
    17  H    0.333972
    18  H    0.388456
    19  S    0.606474
    20  C   -0.628766
    21  H    0.202666
    22  H    0.205741
    23  H    0.216120
    24  C   -0.614820
    25  H    0.197632
    26  H    0.194786
    27  H    0.276848
    28  C   -0.584081
    29  H    0.236177
    30  H    0.253671
    31  H    0.201999
    32  N   -0.712036
    33  H    0.298758
    34  C   -0.050638
    35  H    0.133020
    36  C   -0.446641
    37  C    0.628160
    38  H    0.159793
    39  H    0.145859
    40  H    0.166568
    41  O   -0.505689
    42  O   -0.576187
    43  H    0.321118
    44  H    0.418608
 Sum of Mulliken charges =  -0.00000
 Mulliken charges with hydrogens summed into heavy atoms:
               1
     1  C    0.717814
     2  O   -0.623099
     3  O   -0.218671
     4  O   -0.600093
     6  C    0.721844
     7  C   -0.084762
     8  C    0.285674
     9  N   -0.252660
    12  O   -0.606032
    13  N   -0.590396
    14  C    0.553102
    15  N   -0.047863
    19  S    0.606474
    20  C   -0.004240
    24  C    0.054446
    28  C    0.107767
    32  N   -0.092159
    34  C    0.082382
    36  C    0.025581
    37  C    0.628160
    41  O   -0.505689
    42  O   -0.157578
 Electronic spatial extent (au):  <R**2>=          10207.6945
 Charge=              0.0000 electrons
 Dipole moment (field-independent basis, Debye):
    X=             -2.0842    Y=              3.5694    Z=              0.7265  Tot=              4.1967
 Quadrupole moment (field-independent basis, Debye-Ang):
   XX=           -111.1613   YY=           -149.2201   ZZ=           -138.2165
   XY=            -26.6610   XZ=             -4.9379   YZ=            -17.7609
 Traceless Quadrupole moment (field-independent basis, Debye-Ang):
   XX=             21.7046   YY=            -16.3541   ZZ=             -5.3505
   XY=            -26.6610   XZ=             -4.9379   YZ=            -17.7609
 Octapole moment (field-independent basis, Debye-Ang**2):
  XXX=            -94.3997  YYY=             18.9409  ZZZ=             -8.0067  XYY=             64.3286
  XXY=            -23.9132  XXZ=              0.0158  XZZ=             -7.0952  YZZ=             -4.2098
  YYZ=              3.3080  XYZ=             26.8435
 Hexadecapole moment (field-independent basis, Debye-Ang**3):
 XXXX=          -4949.8271 YYYY=          -6447.8598 ZZZZ=           -816.7897 XXXY=          -1463.1083
 XXXZ=           -206.8171 YYYX=          -1234.4444 YYYZ=           -829.3935 ZZZX=           -187.8406
 ZZZY=           -630.4575 XXYY=          -2128.0152 XXZZ=          -1066.2001 YYZZ=          -1256.9932
 XXYZ=           -262.5734 YYXZ=           -166.9306 ZZXY=           -368.6505
 N-N= 2.093213828489D+03 E-N=-7.710860996139D+03  KE= 1.490098711415D+03
 Calling FoFJK, ICntrl=      2127 FMM=F ISym2X=0 I1Cent= 0 IOpClX= 0 NMat=1 NMatS=1 NMatT=0.
 -------------------------------------------------------------------
 Center     Atomic                   Forces (Hartrees/Bohr)
 Number     Number              X              Y              Z
 -------------------------------------------------------------------
      1        6           0.000544948   -0.001306957   -0.001865351
      2        8          -0.006968544    0.003663262    0.005560905
      3        8           0.003569039   -0.006999259   -0.000049255
      4        8           0.003306196    0.000858721   -0.007566935
      5        1          -0.001229801   -0.000726669    0.002484242
      6        6           0.001300260   -0.005481553   -0.001013940
      7        6          -0.001861832   -0.002717604   -0.001299922
      8        6           0.004364182    0.001369079    0.001707067
      9        7           0.003163527    0.001558970    0.001761708
     10        1           0.000658329   -0.000680455   -0.000005644
     11        1           0.000650106    0.000026029    0.000207162
     12        8          -0.005914423    0.006113053    0.000410184
[...]
 ,-0.00086661,-0.00064105,-0.02164215,0.01181912,0.00838721,0.02240342,
 -0.01286599,-0.00663340,-0.07033216,0.03714653,0.07110507,-0.00041636,
 0.00023300,0.00013561,0.00026612,-0.00030010,-0.00011444,0.00007032,-0
 .00017367,0.00000568,0.00035957,-0.00009545,-0.00002904,-0.00000250,0.
 00003975,-0.00000675,-0.00735352,0.00605871,-0.00095455,0.00113367,0.0
 0072629,0.00035852,0.00102918,-0.00164755,-0.00008315,0.00362659,0.003
 44148,0.00153850,0.00009347,0.00009379,0.00003447,0.00015230,-0.000379
 71,-0.00004085,0.00237702,-0.00635135,-0.00031797,0.00147625,-0.002184
 99,0.00002974,-0.00189319,0.00034687,-0.00034810,0.00068090,0.00019508
 ,0.00016747,-0.00037894,0.00001138,-0.00007967,-0.00003254,-0.00007159
 ,-0.00002547,-0.00254700,-0.00671890,-0.00198734,0.00003444,0.00031260
 ,0.00006949,-0.00000340,0.00000827,-0.00002379,-0.00001966,-0.00004163
 ,-0.00001263,0.00005810,0.00002083,-0.00007114,0.00005350,0.00001833,0
 .00006292,0.00005465,-0.00007068,-0.00002745,-0.00001013,0.00001779,-0
 .00000924,0.00000457,0.00001143,0.00000366,-0.00003197,0.00003976,0.00
 004441,-0.00002531,-0.00011211,-0.00006421,-0.00001629,0.00007523,-0.0
 0000766,-0.00008913,0.00013839,0.00005571,0.00001282,0.00008401,0.0000
 6334,0.00089551,0.00155252,-0.00191466,-0.00057745,-0.00037875,-0.0000
 7195,-0.02407142,0.02269680,-0.02666430,-0.00571393,0.00368392,0.00162
 240,-0.00603677,-0.00231585,-0.00048258,-0.40220185,0.17790031,-0.2583
 6083,0.00050733,0.00083719,0.00127287,0.00010265,0.00027739,-0.0003678
 9,0.00123958,0.00229943,0.00086810,0.41102099,0.00110911,0.00029001,-0
 .00040739,-0.00062988,0.00024305,0.00021415,-0.00017652,-0.00016559,0.
 00002726,-0.00111695,-0.00026073,0.00000387,0.00001175,0.00000871,0.00
 001939,0.00681810,-0.00210058,0.00160274,-0.00095647,-0.00232823,-0.00
 056667,-0.00446297,0.00326999,-0.00046657,-0.00131019,-0.01215499,-0.0
 0301790,-0.00017225,-0.00038504,-0.00007015,0.00018768,0.00023611,0.00
 010927,-0.00527286,0.00157238,-0.00168543,-0.00194360,-0.00091169,-0.0
 0046329,0.00234975,0.00187475,0.00078568,-0.00152655,-0.00175662,-0.00
 049848,0.00110154,0.00011379,0.00024074,-0.00001021,0.00018256,0.00000
 580,0.00093553,0.00815939,0.00115264,-0.00001973,-0.00034187,-0.000022
 43,-0.00008179,-0.00003524,0.00005395,-0.00000463,0.00006260,0.0000175
 2,-0.00000983,-0.00001993,0.00003977,-0.00001364,-0.00003194,-0.000035
 85,-0.00012923,0.00013236,-0.00002065,0.00003419,-0.00002453,0.0000021
 5,-0.00002610,-0.00001734,0.00003157,0.00006960,-0.00004193,-0.0000668
 3,0.00025270,0.00004152,-0.00001780,0.00005553,-0.00003434,-0.00005747
 ,0.00014517,-0.00007324,-0.00002624,0.00021791,-0.00004858,0.00007598,
 0.00112774,0.00135723,-0.00323117,-0.00075783,-0.00078080,-0.00026565,
 0.02182014,0.00649092,0.02170558,0.00549314,-0.00263963,-0.00222163,-0
 .00113209,0.00286018,0.00007102,0.17782388,-0.16859696,0.13855349,-0.0
 0042346,0.00041824,0.00013138,0.00001117,0.00010808,0.00013977,0.00014
 757,0.00003162,0.00014899,-0.20119791,0.15038355,-0.00003909,0.0000548
 3,-0.00002012,0.00003370,-0.00004536,0.00002998,0.00001401,-0.00004150
 ,0.00003179,0.00007444,-0.00002708,0.00008504,-0.00000681,0.00000539,-
 0.00002013,-0.00246682,0.00152388,-0.00099217,0.00039188,0.00034564,0.
 00016118,0.00049898,-0.00073935,0.00002978,0.00063330,0.00124129,0.002
 99612,0.00004757,0.00006356,-0.00005353,0.00006418,-0.00013219,-0.0001
 2092,0.00059314,-0.00196991,0.00235834,0.00057638,-0.00052979,0.000018
 99,-0.00067469,0.00006076,-0.00033336,0.00024361,0.00010722,0.00021983
 ,-0.00012774,0.00001184,-0.00009360,-0.00000563,-0.00002159,-0.0000463
 1,-0.00059228,-0.00472828,-0.00604971,0.00003589,0.00005684,-0.0000158
 8,-0.00000336,0.00000169,-0.00005405,-0.00000239,-0.00000729,0.0000022
 3,-0.00000697,-0.00000627,-0.00000267,0.00002014,-0.00000150,0.0000025
 9,0.00001457,-0.00000589,-0.00003775,-0.00001106,0.00000602,0.00001147
 ,0.00000168,0.00000019,0.00000887,-0.00000631,-0.00000378,0.00000123,-
 0.00002057,0.00002895,-0.00003600,-0.00004313,-0.00001351,0.00002663,-
 0.00000801,0.00001867,-0.00001015,0.00002710,0.00000697,-0.00005465,0.
 00397897,-0.00323877,0.00252071,-0.00101480,0.00019574,0.00338837,-0.0
 0474720,0.00785947,0.00181273,0.00194448,-0.00059159,0.00219219,-0.001
 69874,-0.00172078,-0.00065123,-0.27098155,0.14924939,-0.34030510,0.000
 38006,0.00134943,0.00095241,0.00007228,-0.00072502,0.00020761,0.000542
 03,0.00061515,0.00065239,0.31576314,-0.17618565,0.42416573,-0.00004361
 ,0.00017589,0.00002129,0.00003807,-0.00012639,-0.00004921,0.00000572,-
 0.00012159,-0.00000682,-0.00001425,-0.00009743,-0.00006109,0.00000377,
 0.00002393,0.00000932,-0.00275522,0.00269096,0.00011478,0.00035109,0.0
 0000494,0.00002513,-0.00000053,-0.00021752,0.00003626,0.00085425,-0.00
 026129,-0.00010045,0.00002316,-0.00001470,0.00001469,0.00006718,-0.000
 06977,0.00004941,0.00113453,-0.00350126,0.00031766,0.00035260,-0.00150
 940,-0.00023742,-0.00057566,0.00060836,-0.00002207,0.00004654,-0.00027
 305,-0.00007294,0.00002838,0.00002575,0.00003380,-0.00002518,-0.000004
 20,0.00001914,0.00002477,-0.00008751,0.00019741,0.00000432,0.00011396,
 0.00005235,-0.00001699,-0.00000049,0.00002610,-0.00001304,-0.00001230,
 -0.00000570,0.00004047,0.00001542,-0.00003799,0.00002360,0.00000437,0.
 00003346,0.00000362,-0.00001980,-0.00000320,0.00000408,0.00000608,-0.0
 0001202,-0.00000226,0.00000417,0.00000476,-0.00000547,0.00001984,0.000
 01508,0.00004577,-0.00008081,-0.00003034,0.00001635,0.00005063,-0.0000
 2923,-0.00002547,0.00006744,0.00003726,0.00003420,0.00004413,0.0000779
 2,-0.00594977,0.00117518,0.00542384,-0.00058900,-0.00004710,0.00012891
 ,0.00495871,0.00476815,0.02555017,0.00196705,-0.00101271,0.00096112,-0
 .00370004,-0.00083318,0.00185302,-0.13508927,0.03182349,0.03355218,0.0
 0008088,0.00046231,0.00034770,-0.00004827,0.00061796,-0.00039948,0.000
 24605,0.00156512,0.00034122,0.02159419,0.00057106,-0.04752458,0.466132
 24,0.00055464,0.00021351,-0.00021691,-0.00030836,0.00008007,0.00011566
 ,-0.00008521,-0.00013073,0.00002845,-0.00053083,-0.00017441,0.00004720
 ,0.00000387,0.00001120,0.00000267,-0.00104674,0.00309495,0.00006276,-0
 .00021534,-0.00051407,-0.00011027,-0.00067515,0.00111375,0.00007052,0.
 00030033,-0.00103631,0.00040743,0.00000948,-0.00005382,-0.00002061,0.0
 0003775,0.00001528,-0.00001757,-0.00153232,-0.00343216,0.00267816,-0.0
 0001247,-0.00163112,-0.00037118,0.00024105,0.00118272,0.00003099,-0.00
 050777,-0.00085211,-0.00010189,0.00047321,0.00007579,0.00006341,-0.000
 02669,0.00006893,-0.00001301,0.00022093,0.00126779,-0.00061308,0.00003
 549,-0.00014516,-0.00000779,-0.00005464,-0.00001750,-0.00000514,-0.000
 00869,0.00002602,0.00001508,-0.00000439,-0.00001498,0.00001178,0.00001
 818,-0.00002191,-0.00000908,-0.00006791,0.00007063,-0.00003574,0.00001
 371,-0.00001247,0.00000654,-0.00001489,-0.00001046,0.00002540,0.000034
 42,-0.00002048,-0.00003132,0.00013525,0.00004045,-0.00004131,0.0000038
 2,-0.00002115,-0.00001573,0.00006130,-0.00000971,-0.00001314,0.0001656
 5,-0.00000631,0.00001298,0.00530448,-0.00163321,-0.00373886,0.00020933
 ,0.00023780,0.00022715,0.00501349,0.01911391,-0.01256851,0.00035051,-0
 .00074231,0.00004599,-0.00264687,-0.00062818,0.00211465,0.03013258,-0.
 05837790,-0.00860479,0.00018287,-0.00017817,-0.00041328,0.00005892,0.0
 0096021,-0.00049229,0.00029571,0.00077053,-0.00018140,-0.00057724,0.00
 860203,0.02837664,-0.13558075,0.07193131,-0.00000304,-0.00011109,-0.00
 004421,0.00000261,0.00007425,0.00008578,0.00001084,0.00007275,0.000046
 20,0.00012847,0.00006353,0.00018484,-0.00001196,-0.00001766,-0.0000341
 3,-0.00090477,0.00005262,-0.00153660,0.00029094,0.00068190,0.00028145,
 0.00099252,-0.00094386,-0.00003299,-0.00005268,0.00256939,0.00225272,0
 .00004499,0.00011396,-0.00003041,0.00000067,-0.00012849,-0.00015357,0.
 00008029,0.00066335,0.00340078,0.00054023,0.00082618,0.00042769,-0.000
 60413,-0.00050114,-0.00050265,0.00037602,0.00051009,0.00038240,-0.0002
 3698,-0.00000831,-0.00016536,0.00001915,-0.00003209,-0.00008273,-0.000
 54863,-0.00660908,-0.00392246,0.00005617,-0.00006450,-0.00008216,0.000
 01291,0.00000598,-0.00009322,0.00000940,0.00000368,0.00001070,-0.00005
 096,-0.00002888,0.00004230,0.00000182,-0.00001482,-0.00003924,0.000011
 82,0.00002316,-0.00004013,-0.00001632,-0.00000300,0.00002822,0.0000028
 3,-0.00000562,0.00000602,-0.00000025,-0.00002469,-0.00001461,-0.000066
 34,0.00013575,0.00000003,-0.00007411,-0.00007441,0.00007164,0.00001500
 ,-0.00004134,-0.00005868,0.00000242,-0.00004110,-0.00017795,0.00831408
 ,-0.00279285,-0.00215450,-0.00205018,0.00060850,0.00190822,-0.00166505
 ,0.00290994,-0.02139129,0.00236665,0.00022800,0.00225764,0.00313681,0.
 00193493,-0.00122065,0.09924746,-0.02897651,-0.26673719,-0.00009425,0.
 00041865,0.00024984,-0.00011722,-0.00143629,0.00048060,-0.00026602,-0.
 00144638,-0.00000852,-0.03480336,0.02580238,-0.08366744,0.13423318,-0.
 05047708,0.52237822,0.00049263,-0.00020116,-0.00018218,-0.00030374,0.0
 0032242,0.00015946,-0.00007816,0.00015324,0.00001243,-0.00041918,0.000
 08402,0.00008480,-0.00000222,-0.00003949,-0.00000301,-0.00160749,0.002
 64529,0.00054298,-0.00010422,-0.00028680,-0.00007743,-0.00035468,0.000
 56687,-0.00006197,0.00035295,-0.00027612,-0.00038622,-0.00000475,-0.00
 003160,-0.00000311,0.00001562,0.00001238,0.00000495,-0.00060755,-0.001
 85176,-0.00151104,-0.00004489,-0.00151550,0.00011157,0.00005397,0.0006
 6900,0.00020975,-0.00034749,-0.00055771,-0.00010715,0.00040553,0.00003
 357,0.00006997,-0.00001435,0.00003394,-0.00003422,-0.00045453,0.000468
 64,0.00038775,-0.00004762,-0.00036016,-0.00007614,0.00001229,-0.000070
 40,-0.00015719,0.00005435,0.00008316,0.00006374,-0.00022126,-0.0000316
 3,0.00011437,-0.00004812,0.00001522,-0.00006284,-0.00007602,0.00006986
 ,-0.00002570,-0.00000676,-0.00002817,0.00003432,-0.00000086,-0.0000096
 9,0.00001361,0.00004020,-0.00005144,-0.00004448,-0.00005272,0.00028300
 ,-0.00001754,-0.00000397,-0.00023308,0.00007463,0.00016800,-0.00017339
 ,-0.00004534,0.00017198,-0.00010535,-0.00014849,-0.02988007,-0.0111070
 1,-0.01374360,-0.00721158,-0.02978306,-0.00803196,-0.00796811,-0.01836
 859,0.00188313,0.00040668,0.00087527,-0.00024611,-0.00072147,-0.000355
 50,0.00233036,0.00029143,-0.00267950,0.00161331,0.00011600,0.00033987,
 0.00016234,0.00075779,-0.00056852,-0.00018871,0.00023347,-0.00028295,0
 .00000812,0.00013695,0.00125111,-0.00100313,0.00057102,-0.00036785,-0.
 00166948,0.04606559,-0.00040633,-0.00014849,0.00014655,0.00022853,-0.0
 0006870,-0.00006944,0.00006357,0.00008484,-0.00001554,0.00037860,0.000
 13500,-0.00000169,-0.00000344,-0.00000594,-0.00000608,0.00364289,-0.00
 599607,-0.00001930,-0.00032763,0.00016597,-0.00003545,0.00011232,-0.00
 015394,-0.00001438,-0.00142842,0.00020319,-0.00020964,-0.00003087,0.00
 001893,0.00000319,-0.00006736,0.00004844,-0.00000727,-0.00253488,0.000
 59156,-0.00046632,-0.00021768,0.00227365,0.00033044,0.00068942,-0.0013
 7482,-0.00015214,0.00021893,0.00066993,0.00011570,-0.00032878,-0.00006
 202,-0.00008113,0.00002570,-0.00004023,0.00001450,0.00022301,0.0007270
 4,0.00003262,-0.00002324,0.00016332,0.00001585,0.00004611,0.00002266,0
 .00001035,-0.00000229,-0.00003942,-0.00001342,0.00000969,0.00004467,-0
 .00004334,0.00001148,0.00001830,0.00003004,0.00006990,-0.00007820,0.00
 001314,-0.00002552,0.00001895,0.00000054,0.00001577,0.00001338,-0.0000
 1643,-0.00003114,0.00001119,0.00002587,-0.00013540,0.00000482,-0.00003
 525,-0.00009367,-0.00007387,0.00004995,-0.00002598,-0.00001544,0.00001
 616,-0.00013305,0.00000282,-0.00007665,-0.06622372,-0.37994764,-0.0789
 1079,0.00530908,0.00174800,0.00175359,-0.00022475,-0.01999964,-0.00331
 569,0.00031041,0.00036849,-0.00053583,-0.00120840,-0.00061678,0.004064
 65,-0.00015206,0.00258175,-0.00007477,0.00000571,0.00019509,-0.0000400
 2,-0.00026614,-0.00074965,-0.00048989,-0.00000145,0.00028374,0.0000684
 5,0.00045568,-0.00084034,-0.00061819,0.00061982,-0.00092359,-0.0010067
 5,0.06151587,0.40058179,-0.00044422,-0.00019483,0.00018604,0.00024606,
 -0.00004453,-0.00010814,0.00006460,0.00012134,-0.00003322,0.00043462,0
 .00016319,-0.00003252,-0.00000060,-0.00000920,0.00000385,0.00395111,-0
 .00557501,0.00127994,-0.00039557,0.00025762,-0.00005366,0.00008092,-0.
 00024785,0.00000034,-0.00196572,0.00055843,-0.00049835,-0.00004262,0.0
 0002779,0.00001318,-0.00010585,0.00006870,-0.00000070,-0.00333437,0.00
 392663,-0.00125411,-0.00039320,0.00337264,0.00019946,0.00081161,-0.001
 50603,-0.00014754,0.00025368,0.00085753,0.00008212,-0.00039037,-0.0000
 7776,-0.00006309,0.00002906,-0.00003754,0.00004823,0.00020796,0.000395
 38,0.00029078,-0.00003630,0.00006697,-0.00001965,0.00008391,0.00002584
 ,0.00003273,0.00001692,-0.00001003,-0.00001239,-0.00002226,-0.00000703
 ,0.00004851,-0.00005006,0.00000871,-0.00004393,0.00006894,-0.00004042,
 0.00008354,-0.00000068,0.00000433,-0.00000978,0.00000968,0.00000903,-0
 .00003823,-0.00002692,0.00002229,0.00002081,-0.00012794,-0.00000619,0.
 00015026,0.00000445,-0.00000392,0.00004989,-0.00004101,0.00000167,-0.0
 0002948,-0.00020366,-0.00007451,-0.00013454,-0.02850187,-0.08992728,-0
 .08523835,-0.00214092,-0.03228375,-0.00716927,0.00844065,0.03531520,0.
 00658228,-0.00068315,0.00028404,0.00013124,0.00295061,0.00229299,-0.00
 578569,0.00043007,0.00208135,0.00049183,0.00024393,-0.00014577,0.00007
 015,0.00053463,0.00213419,0.00038536,-0.00021473,-0.00046821,-0.000172
 44,0.00035508,-0.00051000,-0.00013816,0.00005467,-0.00049870,-0.000518
 48,0.01978870,0.07927181,0.09136863,0.00003453,-0.00010786,-0.00000904
 ,-0.00002825,0.00008017,0.00001920,-0.00000603,0.00007497,-0.00000108,
 -0.00001023,0.00005806,0.00001639,-0.00000122,-0.00001453,-0.00000137,
 0.00069981,-0.00066299,-0.00009510,-0.00010325,-0.00000380,-0.00000527
 ,-0.00003316,0.00003229,-0.00000359,-0.00031040,-0.00004514,0.00001677
 ,-0.00000876,0.00000416,-0.00000880,-0.00001466,0.00001059,-0.00000950
 ,-0.00066192,0.00064062,-0.00020210,-0.00011840,0.00039702,0.00005319,
 0.00019783,-0.00019745,0.00001014,-0.00002249,0.00007828,0.00001712,0.
 00001220,-0.00000908,-0.00000400,0.00000632,-0.00000040,-0.00000569,-0
 .00000476,0.00032012,0.00001261,-0.00001945,-0.00008960,-0.00002484,0.
 00001174,-0.00000577,0.00002741,0.00001012,0.00001305,-0.00000325,-0.0
 0001546,0.00000141,0.00001974,-0.00003236,-0.00000444,-0.00001978,-0.0
 0000805,0.00001430,0.00001654,0.00000088,-0.00000163,0.00000128,0.0000
 0116,-0.00000239,-0.00000496,0.00000384,-0.00000863,-0.00001156,-0.000
 02343,0.00002346,0.00002620,0.00000938,-0.00000668,-0.00000125,0.00001
 777,-0.00003806,-0.00002274,-0.00001022,-0.00003657,0.00000165,-0.0007
 3812,0.00034277,-0.00100600,0.00022434,0.00032597,-0.00004407,0.001385
 56,-0.00036662,0.00569312,-0.00215506,0.00013701,0.00037391,-0.0002676
 8,0.00015487,-0.00055326,0.00425470,-0.00279435,0.00247668,-0.00007133
 ,-0.00028593,-0.00005280,0.00009298,-0.00032352,0.00010524,-0.00001942
 ,-0.00000322,0.00014865,0.00444069,-0.00015969,0.00503333,-0.34979856,
 0.10040711,-0.20666157,0.00023537,-0.00006029,0.00006015,0.34284347,-0
 .00030712,-0.00019579,0.00012280,0.00016464,0.00000362,-0.00005519,0.0
 0004662,0.00012569,-0.00001962,0.00029025,0.00014368,-0.00003318,-0.00
 000289,-0.00001562,-0.00000172,0.00142352,-0.00247354,0.00005003,-0.00
 009329,0.00015790,-0.00000848,0.00019429,-0.00028833,0.00002425,-0.000
 66977,0.00029597,-0.00008708,-0.00001579,0.00002285,-0.00000112,-0.000
 04263,0.00002502,-0.00000091,-0.00038086,0.00202351,-0.00161919,-0.000
 14065,0.00123077,0.00012174,0.00022905,-0.00083532,0.00004038,0.000197
 83,0.00047202,0.00003270,-0.00023105,-0.00005293,-0.00002485,0.0000166
 0,-0.00003458,0.00001430,0.00024863,0.00027184,-0.00014410,-0.00004877
 ,0.00004556,-0.00000548,0.00004117,0.00000302,0.00000211,0.00001398,-0
 .00000616,-0.00001027,-0.00001276,0.00000813,0.00000377,-0.00003117,0.
 00002239,-0.00000285,0.00003798,-0.00004189,0.00002599,-0.00000870,0.0
 0000685,-0.00000263,0.00001077,0.00000620,-0.00001848,-0.00001864,0.00
 000576,0.00001383,-0.00010301,-0.00001541,0.00003219,0.00001077,0.0000
 0545,0.00000316,-0.00002024,-0.00002446,0.00000220,-0.00010977,-0.0000
 1552,0.00001186,-0.00030511,-0.00043283,0.00084839,-0.00017843,-0.0000
 3640,0.00001227,0.00019689,-0.00128886,-0.00164318,0.00034042,0.001005
 36,-0.00012361,0.00060284,0.00046317,-0.00102454,-0.00244507,-0.005342
 80,0.00315727,-0.00010015,-0.00008159,0.00026071,-0.00017243,-0.000854
 64,0.00004839,-0.00010757,-0.00026384,0.00016787,0.00104126,0.00715108
 ,0.00017373,0.09841226,-0.03828869,0.05708693,-0.00008633,0.00015726,0
 .00040090,-0.09788759,0.03693609,0.00002570,0.00007404,0.00000328,-0.0
 0001302,-0.00004025,-0.00002693,-0.00000668,-0.00004934,-0.00001158,-0
 .00007375,-0.00004656,-0.00006446,0.00000402,0.00000932,0.00001113,-0.
 00087555,0.00151591,0.00019269,0.00002815,-0.00015632,-0.00004701,-0.0
 0015307,0.00025365,0.00003877,0.00044337,-0.00029798,0.00006358,0.0000
 0451,-0.00002025,0.00000742,0.00002161,-0.00000254,0.00001495,0.000468
 87,-0.00168395,-0.00003087,0.00005532,-0.00086314,-0.00023368,-0.00007
 736,0.00041933,0.00008237,-0.00010750,-0.00027380,-0.00011057,0.000107
 97,0.00001387,0.00005589,-0.00001320,0.00000987,0.00002115,-0.00003676
 ,0.00020032,-0.00015733,-0.00001164,0.00003618,0.00004311,-0.00001634,
 -0.00000504,0.00003003,-0.00000743,-0.00000337,-0.00000285,0.00002547,
 0.00001421,-0.00002801,0.00001129,0.00000708,0.00002876,-0.00001048,-0
 .00000995,0.00000373,0.00000592,0.00000327,-0.00001115,-0.00000190,0.0
 0000156,0.00000260,0.00000060,0.00000921,0.00000520,0.00003819,-0.0000
 5403,-0.00002141,0.00002321,0.00003326,-0.00003054,-0.00000622,0.00002
 356,0.00002792,0.00002958,0.00003308,0.00008114,-0.00053720,0.00027136
 ,0.00191546,-0.00025432,-0.00018117,0.00037288,0.00035408,-0.00051600,
 -0.00092744,0.00267073,-0.00040961,0.00048534,-0.00027249,-0.00045493,
 0.00024538,-0.04616371,0.01619251,-0.02558334,0.00008309,0.00031025,0.
 00020218,0.00002462,-0.00022146,-0.00002794,-0.00004541,0.00023976,0.0
 0016485,0.00441790,-0.00109782,-0.00917328,-0.15493926,0.04425522,-0.1
 5178614,0.00015677,0.00029198,-0.00001748,0.19462233,-0.05783130,0.184
 19220\\-0.00000077,0.00000039,-0.00000071,-0.00000059,0.00000070,-0.00
 000086,-0.00000096,0.00000061,-0.00000079,-0.00000025,0.00000037,-0.00
 000047,-0.00000107,0.00000069,-0.00000097,-0.00000007,0.00000017,0.000
 00030,-0.00000035,-0.00000067,0.00000057,-0.00000018,-0.00000091,0.000
 00072,-0.00000015,-0.00000063,0.00000071,-0.00000065,-0.00000085,0.000
 00072,-0.00000027,-0.00000102,0.00000102,0.00000031,-0.00000043,0.0000
 0023,-0.00000045,-0.00000144,-0.00000134,-0.00000045,-0.00000045,0.000
 00026,-0.00000051,-0.00000026,0.00000006,-0.00000074,-0.00000003,-0.00
 000018,-0.00000078,-0.00000043,0.00000025,0.00000011,-0.00000075,0.000
 00071,0.00000039,-0.00000099,-0.00000360,0.00000022,0.00000084,-0.0000
 0078,0.00000029,0.00000102,-0.00000098,0.00000012,0.00000064,-0.000000
 66,0.00000055,0.00000075,-0.00000062,-0.00000062,0.00000073,-0.0000008
 6,-0.00000057,0.00000067,-0.00000085,-0.00000050,0.00000108,-0.0000011
 6,-0.00000063,0.00000084,-0.00000105,-0.00000030,0.00000347,0.00000407
 ,-0.00000032,0.00000024,-0.00000039,-0.00000018,0.00000031,-0.00000045
 ,0.00000016,0.00000024,-0.00000028,0.00000027,-0.00000025,0.00000034,0
 .00000016,-0.00000042,0.00000047,0.00000077,-0.00000042,0.00000037,0.0
 0000088,-0.00000009,0.00000036,0.00000094,-0.00000025,0.00000058,0.000
 00050,-0.00000049,0.00000063,0.00000082,-0.00000057,0.00000079,0.00000
 123,-0.00000043,0.00000076,0.00000100,-0.00000020,0.00000044,0.0000004
 3,-0.00000071,0.00000096,0.00000091,-0.00000054,0.00000079,0.00000020,
 -0.00000017,0.00000025,0.00000111,-0.00000037,0.00000065\\\@


 THE POLHOLDE ROLLS WITHOUT SLIPPING ON THE HERPOLHOLDE LYING IN
 THE INVARIABLE PLANE.
 H.GOLDSTEIN, "CLASSICAL MECHANICS", PG 161
 Job cpu time:       0 days  1 hours 42 minutes 36.7 seconds.
 File lengths (MBytes):  RWF=    760 Int=      0 D2E=      0 Chk=     12 Scr=      1
 Normal termination of Gaussian 09 at Fri Apr  9 03:54:54 2021.
