 Entering Gaussian System, Link 0=g09
 Initial command:
 /opt/software/gaussian/g09.e01/l1.exe "/localscratch/enas93.64551510.0/Gau-56778.inp" -scrdir="/localscratch/enas93.64551510.0/"
 Entering Link 1 = /opt/software/gaussian/g09.e01/l1.exe PID=     56780.
  
 Copyright (c) 1988,1990,1992,1993,1995,1998,2003,2009,2015,
            Gaussian, Inc.  All Rights Reserved.
  
 This is part of the Gaussian(R) 09 program.  It is based on
 the Gaussian(R) 03 system (copyright 2003, Gaussian, Inc.),
 the Gaussian(R) 98 system (copyright 1998, Gaussian, Inc.),
 the Gaussian(R) 94 system (copyright 1995, Gaussian, Inc.),
 the Gaussian 92(TM) system (copyright 1992, Gaussian, Inc.),
 the Gaussian 90(TM) system (copyright 1990, Gaussian, Inc.),
 the Gaussian 88(TM) system (copyright 1988, Gaussian, Inc.),
 the Gaussian 86(TM) system (copyright 1986, Carnegie Mellon
 University), and the Gaussian 82(TM) system (copyright 1983,
 Carnegie Mellon University). Gaussian is a federally registered
 trademark of Gaussian, Inc.
  
 This software contains proprietary and confidential information,
 including trade secrets, belonging to Gaussian, Inc.
  
 This software is provided under written license and may be
 used, copied, transmitted, or stored only in accord with that
 written license.
  
 The following legend is applicable only to US Government
 contracts under FAR:
  
                    RESTRICTED RIGHTS LEGEND
  
 Use, reproduction and disclosure by the US Government is
 subject to restrictions as set forth in subparagraphs (a)
 and (c) of the Commercial Computer Software - Restricted
 Rights clause in FAR 52.227-19.
  
 Gaussian, Inc.
 340 Quinnipiac St., Bldg. 40, Wallingford CT 06492
  
  
 ---------------------------------------------------------------
 Warning -- This program may not be used in any manner that
 competes with the business of Gaussian, Inc. or will provide
 assistance to any competitor of Gaussian, Inc.  The licensee
 of this program is prohibited from giving any competitor of
 Gaussian, Inc. access to this program.  By using this program,
 the user acknowledges that Gaussian, Inc. is engaged in the
 business of creating and licensing software in the field of
 computational chemistry and represents and warrants to the
 licensee that it is not a competitor of Gaussian, Inc. and that
 it will not use this program in any manner prohibited above.
 ---------------------------------------------------------------
  

 Cite this work as:
 Gaussian 09, Revision E.01,
 M. J. Frisch, G. W. Trucks, H. B. Schlegel, G. E. Scuseria, 
 M. A. Robb, J. R. Cheeseman, G. Scalmani, V. Barone, B. Mennucci, 
 G. A. Petersson, H. Nakatsuji, M. Caricato, X. Li, H. P. Hratchian, 
 A. F. Izmaylov, J. Bloino, G. Zheng, J. L. Sonnenberg, M. Hada, 
 M. Ehara, K. Toyota, R. Fukuda, J. Hasegawa, M. Ishida, T. Nakajima, 
 Y. Honda, O. Kitao, H. Nakai, T. Vreven, J. A. Montgomery, Jr., 
 J. E. Peralta, F. Ogliaro, M. Bearpark, J. J. Heyd, E. Brothers, 
 K. N. Kudin, V. N. Staroverov, T. Keith, R. Kobayashi, J. Normand, 
 K. Raghavachari, A. Rendell, J. C. Burant, S. S. Iyengar, J. Tomasi, 
 M. Cossi, N. Rega, J. M. Millam, M. Klene, J. E. Knox, J. B. Cross, 
 V. Bakken, C. Adamo, J. Jaramillo, R. Gomperts, R. E. Stratmann, 
 O. Yazyev, A. J. Austin, R. Cammi, C. Pomelli, J. W. Ochterski, 
 R. L. Martin, K. Morokuma, V. G. Zakrzewski, G. A. Voth, 
 P. Salvador, J. J. Dannenberg, S. Dapprich, A. D. Daniels, 
 O. Farkas, J. B. Foresman, J. V. Ortiz, J. Cioslowski, 
 and D. J. Fox, Gaussian, Inc., Wallingford CT, 2013.
 
 ******************************************
 Gaussian 09:  EM64L-G09RevE.01 30-Nov-2015
                24-Mar-2021 
 ******************************************
 %nprocshared=16
 Will use up to   16 processors via shared memory.
 %mem=10GB
 ----------------------------------------------------
 # opt=(tight,modredundant) freq apfd/6-31g(d) nosymm
 ----------------------------------------------------
 1/7=10,14=-1,18=120,19=15,26=3,38=1/1,3;
 2/9=110,12=2,15=1,17=6,18=5,40=1/2;
 3/5=1,6=6,7=1,11=2,16=1,25=1,30=1,71=1,74=-44/1,2,3;
 4//1;
 5/5=2,38=5/2;
 6/7=2,8=2,9=2,10=2,28=1/1;
 7/30=1/1,2,3,16;
 1/7=10,14=-1,18=20,19=15,26=3/3(2);
 2/9=110,15=1/2;
 99//99;
 2/9=110,15=1/2;
 3/5=1,6=6,7=1,11=2,16=1,25=1,30=1,71=1,74=-44/1,2,3;
 4/5=5,16=3,69=1/1;
 5/5=2,38=5/2;
 7/30=1/1,2,3,16;
 1/7=10,14=-1,18=20,19=15,26=3/3(-5);
 2/9=110,15=1/2;
 6/7=2,8=2,9=2,10=2,19=2,28=1/1;
 99/9=1/99;
 -------------------
 Title Card Required
 -------------------
 Symbolic Z-matrix:
 Charge =  0 Multiplicity = 1
 C                    -2.05684  -1.79348   0.00835 
 O                    -2.71614  -0.97306   0.6971 
 O                    -2.01655  -3.08514   0.48519 
 O                    -1.41168  -1.58775  -1.03781 
 H                    -2.55571  -3.06956   1.28951 
 C                     2.58377   1.01262   0.29009 
 C                     3.55159  -1.61174   0.06372 
 C                     4.38054  -0.62034   0.45758 
 N                     3.92301   0.65343   0.56795 
 H                     3.8938   -2.63369  -0.03171 
 H                     5.42522  -0.78265   0.70022 
 O                     2.25362   2.18186   0.43452 
 N                     1.75676   0.01592  -0.11858 
 C                     2.18426  -1.23408  -0.22722 
 N                     1.31469  -2.16663  -0.62719 
 H                     0.31906  -1.94169  -0.80399 
 H                     1.5951   -3.13369  -0.66815 
 H                     4.52217   1.40993   0.86773 
 S                    -2.56986   1.45109  -0.41789 
 C                    -2.4391    3.14207  -1.06335 
 H                    -3.44297   3.56047  -1.15503 
 H                    -1.82199   3.7624   -0.41004 
 H                    -1.98205   3.07988  -2.0527 
 C                    -3.03603   1.82954   1.28279 
 H                    -2.2815    2.47847   1.73247 
 H                    -4.0111    2.31947   1.26919 
 H                    -3.08999   0.86066   1.77885 
 C                    -0.80818   1.0659   -0.24719 
 H                    -0.7481    0.32353   0.54195 
 H                    -0.49546   0.5929   -1.17217 
 H                    -0.22988   1.96298  -0.01313 
 
 Add virtual bond connecting atoms H16        and O4         Dist= 3.37D+00.
 Add virtual bond connecting atoms H27        and O2         Dist= 4.08D+00.
 The following ModRedundant input section has been read:
 A      13      28      19 F                                                   
 

 GradGradGradGradGradGradGradGradGradGradGradGradGradGradGradGradGradGrad
 Berny optimization.
 Initialization pass.
                           ----------------------------
                           !    Initial Parameters    !
                           ! (Angstroms and Degrees)  !
 --------------------------                            --------------------------
 ! Name  Definition              Value          Derivative Info.                !
 --------------------------------------------------------------------------------
 ! R1    R(1,2)                  1.2578         estimate D2E/DX2                !
 ! R2    R(1,3)                  1.3774         estimate D2E/DX2                !
 ! R3    R(1,4)                  1.2462         estimate D2E/DX2                !
 ! R4    R(2,27)                 2.1616         estimate D2E/DX2                !
 ! R5    R(3,5)                  0.9684         estimate D2E/DX2                !
 ! R6    R(4,16)                 1.782          estimate D2E/DX2                !
 ! R7    R(6,9)                  1.4141         estimate D2E/DX2                !
 ! R8    R(6,12)                 1.2235         estimate D2E/DX2                !
 ! R9    R(6,13)                 1.3581         estimate D2E/DX2                !
 ! R10   R(7,8)                  1.351          estimate D2E/DX2                !
 ! R11   R(7,10)                 1.0819         estimate D2E/DX2                !
 ! R12   R(7,14)                 1.4481         estimate D2E/DX2                !
 ! R13   R(8,9)                  1.3579         estimate D2E/DX2                !
 ! R14   R(8,11)                 1.0847         estimate D2E/DX2                !
 ! R15   R(9,18)                 1.0105         estimate D2E/DX2                !
 ! R16   R(13,14)                1.3255         estimate D2E/DX2                !
 ! R17   R(14,15)                1.3363         estimate D2E/DX2                !
 ! R18   R(15,16)                1.0359         estimate D2E/DX2                !
 ! R19   R(15,17)                1.0077         estimate D2E/DX2                !
 ! R20   R(19,20)                1.8147         estimate D2E/DX2                !
 ! R21   R(19,24)                1.8036         estimate D2E/DX2                !
 ! R22   R(19,28)                1.8114         estimate D2E/DX2                !
 ! R23   R(20,21)                1.0914         estimate D2E/DX2                !
 ! R24   R(20,22)                1.092          estimate D2E/DX2                !
 ! R25   R(20,23)                1.0916         estimate D2E/DX2                !
 ! R26   R(24,25)                1.0921         estimate D2E/DX2                !
 ! R27   R(24,26)                1.0913         estimate D2E/DX2                !
 ! R28   R(24,27)                1.0898         estimate D2E/DX2                !
 ! R29   R(28,29)                1.0851         estimate D2E/DX2                !
 ! R30   R(28,30)                1.0849         estimate D2E/DX2                !
 ! R31   R(28,31)                1.0927         estimate D2E/DX2                !
 ! A1    A(2,1,3)              115.938          estimate D2E/DX2                !
 ! A2    A(2,1,4)              128.5616         estimate D2E/DX2                !
 ! A3    A(3,1,4)              115.4846         estimate D2E/DX2                !
 ! A4    A(1,2,27)             156.6348         estimate D2E/DX2                !
 ! A5    A(1,3,5)              104.8412         estimate D2E/DX2                !
 ! A6    A(1,4,16)             111.0931         estimate D2E/DX2                !
 ! A7    A(9,6,12)             118.3649         estimate D2E/DX2                !
 ! A8    A(9,6,13)             116.707          estimate D2E/DX2                !
 ! A9    A(12,6,13)            124.928          estimate D2E/DX2                !
 ! A10   A(8,7,10)             121.6541         estimate D2E/DX2                !
 ! A11   A(8,7,14)             116.5238         estimate D2E/DX2                !
 ! A12   A(10,7,14)            121.8219         estimate D2E/DX2                !
 ! A13   A(7,8,9)              120.3518         estimate D2E/DX2                !
 ! A14   A(7,8,11)             123.1173         estimate D2E/DX2                !
 ! A15   A(9,8,11)             116.5309         estimate D2E/DX2                !
 ! A16   A(6,9,8)              122.7768         estimate D2E/DX2                !
 ! A17   A(6,9,18)             115.4461         estimate D2E/DX2                !
 ! A18   A(8,9,18)             121.7731         estimate D2E/DX2                !
 ! A19   A(6,13,14)            121.3554         estimate D2E/DX2                !
 ! A20   A(7,14,13)            122.2765         estimate D2E/DX2                !
 ! A21   A(7,14,15)            119.5101         estimate D2E/DX2                !
 ! A22   A(13,14,15)           118.2124         estimate D2E/DX2                !
 ! A23   A(14,15,16)           121.6657         estimate D2E/DX2                !
 ! A24   A(14,15,17)           120.0516         estimate D2E/DX2                !
 ! A25   A(16,15,17)           117.9612         estimate D2E/DX2                !
 ! A26   A(20,19,24)            99.1192         estimate D2E/DX2                !
 ! A27   A(20,19,28)            99.2993         estimate D2E/DX2                !
 ! A28   A(24,19,28)           101.9548         estimate D2E/DX2                !
 ! A29   A(19,20,21)           108.7127         estimate D2E/DX2                !
 ! A30   A(19,20,22)           110.9323         estimate D2E/DX2                !
 ! A31   A(19,20,23)           107.4249         estimate D2E/DX2                !
 ! A32   A(21,20,22)           110.6256         estimate D2E/DX2                !
 ! A33   A(21,20,23)           109.3188         estimate D2E/DX2                !
 ! A34   A(22,20,23)           109.754          estimate D2E/DX2                !
 ! A35   A(19,24,25)           109.5349         estimate D2E/DX2                !
 ! A36   A(19,24,26)           108.2633         estimate D2E/DX2                !
 ! A37   A(19,24,27)           104.8007         estimate D2E/DX2                !
 ! A38   A(25,24,26)           110.8356         estimate D2E/DX2                !
 ! A39   A(25,24,27)           112.028          estimate D2E/DX2                !
 ! A40   A(26,24,27)           111.1335         estimate D2E/DX2                !
 ! A41   A(2,27,24)            121.1864         estimate D2E/DX2                !
 ! A42   A(13,28,19)           169.7219         Frozen                          !
 ! A43   A(19,28,29)           105.5372         estimate D2E/DX2                !
 ! A44   A(19,28,30)           107.0191         estimate D2E/DX2                !
 ! A45   A(19,28,31)           111.1206         estimate D2E/DX2                !
 ! A46   A(29,28,30)           107.8061         estimate D2E/DX2                !
 ! A47   A(29,28,31)           112.1224         estimate D2E/DX2                !
 ! A48   A(30,28,31)           112.8302         estimate D2E/DX2                !
 ! A49   L(4,16,15,12,-1)      180.5913         estimate D2E/DX2                !
 ! A50   L(4,16,15,12,-2)      177.4205         estimate D2E/DX2                !
 ! D1    D(3,1,2,27)           129.2748         estimate D2E/DX2                !
 ! D2    D(4,1,2,27)           -49.1993         estimate D2E/DX2                !
 ! D3    D(2,1,3,5)              1.0562         estimate D2E/DX2                !
 ! D4    D(4,1,3,5)            179.7344         estimate D2E/DX2                !
 ! D5    D(2,1,4,16)           117.9957         estimate D2E/DX2                !
 ! D6    D(3,1,4,16)           -60.4842         estimate D2E/DX2                !
 ! D7    D(1,2,27,24)           59.795          estimate D2E/DX2                !
 ! D8    D(1,4,15,14)          -91.3048         estimate D2E/DX2                !
 ! D9    D(1,4,15,17)           80.3964         estimate D2E/DX2                !
 ! D10   D(12,6,9,8)           178.975          estimate D2E/DX2                !
 ! D11   D(12,6,9,18)           -0.3134         estimate D2E/DX2                !
 ! D12   D(13,6,9,8)            -0.8903         estimate D2E/DX2                !
 ! D13   D(13,6,9,18)          179.8213         estimate D2E/DX2                !
 ! D14   D(9,6,13,14)            1.1345         estimate D2E/DX2                !
 ! D15   D(12,6,13,14)        -178.721          estimate D2E/DX2                !
 ! D16   D(10,7,8,9)           179.9753         estimate D2E/DX2                !
 ! D17   D(10,7,8,11)           -0.0479         estimate D2E/DX2                !
 ! D18   D(14,7,8,9)             0.152          estimate D2E/DX2                !
 ! D19   D(14,7,8,11)         -179.8712         estimate D2E/DX2                !
 ! D20   D(8,7,14,13)            0.1028         estimate D2E/DX2                !
 ! D21   D(8,7,14,15)          179.7197         estimate D2E/DX2                !
 ! D22   D(10,7,14,13)        -179.7203         estimate D2E/DX2                !
 ! D23   D(10,7,14,15)          -0.1033         estimate D2E/DX2                !
 ! D24   D(7,8,9,6)              0.2525         estimate D2E/DX2                !
 ! D25   D(7,8,9,18)           179.4966         estimate D2E/DX2                !
 ! D26   D(11,8,9,6)          -179.7258         estimate D2E/DX2                !
 ! D27   D(11,8,9,18)           -0.4816         estimate D2E/DX2                !
 ! D28   D(6,13,14,7)           -0.7849         estimate D2E/DX2                !
 ! D29   D(6,13,14,15)         179.5934         estimate D2E/DX2                !
 ! D30   D(7,14,15,16)         177.2625         estimate D2E/DX2                !
 ! D31   D(7,14,15,17)           3.9075         estimate D2E/DX2                !
 ! D32   D(13,14,15,16)         -3.105          estimate D2E/DX2                !
 ! D33   D(13,14,15,17)       -176.46           estimate D2E/DX2                !
 ! D34   D(24,19,20,21)        -71.9461         estimate D2E/DX2                !
 ! D35   D(24,19,20,22)         49.9086         estimate D2E/DX2                !
 ! D36   D(24,19,20,23)        169.8638         estimate D2E/DX2                !
 ! D37   D(28,19,20,21)       -175.7659         estimate D2E/DX2                !
 ! D38   D(28,19,20,22)        -53.9112         estimate D2E/DX2                !
 ! D39   D(28,19,20,23)         66.0439         estimate D2E/DX2                !
 ! D40   D(20,19,24,25)        -56.763          estimate D2E/DX2                !
 ! D41   D(20,19,24,26)         64.2025         estimate D2E/DX2                !
 ! D42   D(20,19,24,27)       -177.1191         estimate D2E/DX2                !
 ! D43   D(28,19,24,25)         44.8486         estimate D2E/DX2                !
 ! D44   D(28,19,24,26)        165.8141         estimate D2E/DX2                !
 ! D45   D(28,19,24,27)        -75.5075         estimate D2E/DX2                !
 ! D46   D(20,19,28,29)        153.2307         estimate D2E/DX2                !
 ! D47   D(20,19,28,30)        -92.1219         estimate D2E/DX2                !
 ! D48   D(20,19,28,31)         31.4672         estimate D2E/DX2                !
 ! D49   D(24,19,28,29)         51.7622         estimate D2E/DX2                !
 ! D50   D(24,19,28,30)        166.4096         estimate D2E/DX2                !
 ! D51   D(24,19,28,31)        -70.0013         estimate D2E/DX2                !
 ! D52   D(19,24,27,2)          -1.3083         estimate D2E/DX2                !
 ! D53   D(25,24,27,2)        -119.9935         estimate D2E/DX2                !
 ! D54   D(26,24,27,2)         115.4126         estimate D2E/DX2                !
 --------------------------------------------------------------------------------
 Trust Radius=3.00D-01 FncErr=1.00D-07 GrdErr=1.00D-06
 Number of steps in this run=    145 maximum allowed number of steps=    186.
 GradGradGradGradGradGradGradGradGradGradGradGradGradGradGradGradGradGrad

                          Input orientation:                          
 ---------------------------------------------------------------------
 Center     Atomic      Atomic             Coordinates (Angstroms)
 Number     Number       Type             X           Y           Z
 ---------------------------------------------------------------------
      1          6           0       -2.056840   -1.793483    0.008346
      2          8           0       -2.716144   -0.973057    0.697103
      3          8           0       -2.016549   -3.085136    0.485187
      4          8           0       -1.411675   -1.587753   -1.037807
      5          1           0       -2.555710   -3.069555    1.289510
      6          6           0        2.583774    1.012617    0.290091
      7          6           0        3.551591   -1.611743    0.063724
      8          6           0        4.380541   -0.620340    0.457577
      9          7           0        3.923006    0.653432    0.567953
     10          1           0        3.893800   -2.633694   -0.031710
     11          1           0        5.425221   -0.782652    0.700215
     12          8           0        2.253620    2.181862    0.434518
     13          7           0        1.756757    0.015922   -0.118575
     14          6           0        2.184258   -1.234083   -0.227215
     15          7           0        1.314689   -2.166627   -0.627189
     16          1           0        0.319060   -1.941690   -0.803987
     17          1           0        1.595099   -3.133687   -0.668154
     18          1           0        4.522169    1.409933    0.867729
     19         16           0       -2.569859    1.451085   -0.417890
     20          6           0       -2.439102    3.142066   -1.063354
     21          1           0       -3.442969    3.560472   -1.155028
     22          1           0       -1.821994    3.762397   -0.410041
     23          1           0       -1.982052    3.079880   -2.052697
     24          6           0       -3.036028    1.829541    1.282794
     25          1           0       -2.281497    2.478473    1.732472
     26          1           0       -4.011102    2.319467    1.269188
     27          1           0       -3.089992    0.860662    1.778854
     28          6           0       -0.808178    1.065902   -0.247191
     29          1           0       -0.748099    0.323534    0.541952
     30          1           0       -0.495462    0.592898   -1.172173
     31          1           0       -0.229883    1.962979   -0.013133
 ---------------------------------------------------------------------
                    Distance matrix (angstroms):
                    1          2          3          4          5
     1  C    0.000000
     2  O    1.257842   0.000000
     3  O    1.377450   2.234999   0.000000
     4  O    1.246194   2.255971   2.219806   0.000000
     5  H    1.875796   2.184488   0.968438   2.986797   0.000000
     6  C    5.430366   5.674301   6.163815   4.948621   6.639071
     7  C    5.611648   6.331950   5.775180   5.084088   6.397413
     8  C    6.558807   7.109481   6.855563   6.059854   7.402861
     9  N    6.485300   6.836699   7.018693   6.005014   7.506999
    10  H    6.009798   6.854214   5.950059   5.500390   6.597861
    11  H    7.581669   8.143592   7.792792   7.100145   8.323007
    12  O    5.879205   5.892454   6.780721   5.460048   7.172032
    13  N    4.222982   4.652983   4.921273   3.668204   5.486369
    14  C    4.284312   4.993640   4.645502   3.703090   5.304405
    15  N    3.451137   4.407491   3.630177   2.817226   4.412369
    16  H    2.515303   3.521929   2.902500   1.781962   3.730833
    17  H    3.948475   5.011892   3.791643   3.401065   4.589747
    18  H    7.367752   7.622397   7.943980   6.915757   8.386899
    19  S    3.312414   2.672279   4.658219   3.310623   4.832349
    20  C    5.065008   4.484440   6.430752   4.840191   6.643328
    21  H    5.651515   4.950914   6.992073   5.535713   7.121815
    22  H    5.576558   4.944674   6.908545   5.402458   7.078304
    23  H    5.291801   4.952433   6.667043   4.810627   7.022463
    24  C    3.963500   2.880957   5.082279   4.438650   4.922590
    25  H    4.612233   3.629596   5.707860   4.996522   5.572434
    26  H    4.724957   3.583980   5.814003   5.229303   5.582127
    27  H    3.353593   2.161590   4.288960   4.092073   3.996438
    28  C    3.130581   2.947775   4.384935   2.833931   4.745242
    29  H    2.545447   2.361868   3.637474   2.566903   3.916549
    30  H    3.086477   3.298157   4.311436   2.369122   4.870120
    31  H    4.177229   3.912319   5.378100   3.879985   5.694976
                    6          7          8          9         10
     6  C    0.000000
     7  C    2.806275   0.000000
     8  C    2.433716   1.350984   0.000000
     9  N    1.414130   2.350152   1.357946   0.000000
    10  H    3.887841   1.081942   2.128359   3.341504   0.000000
    11  H    3.386003   2.145461   1.084700   2.082422   2.511438
    12  O    1.223517   4.026618   3.518048   2.267323   5.108536
    13  N    1.358074   2.429806   2.760620   2.360164   3.405138
    14  C    2.339846   1.448058   2.381025   2.686680   2.218032
    15  N    3.543949   2.406032   3.600996   4.022986   2.687854
    16  H    3.879931   3.363190   4.453441   4.648151   3.722103
    17  H    4.368930   2.584535   3.916998   4.614042   2.437023
    18  H    2.061286   3.273984   2.076124   1.010522   4.189840
    19  S    5.220481   6.861852   7.305156   6.615545   7.655942
    20  C    5.621001   7.730292   7.935771   7.023595   8.633038
    21  H    6.700863   8.784135   9.015930   8.104143   9.667353
    22  H    5.240445   7.614542   7.644121   6.605086   8.586234
    23  H    5.532540   7.557233   7.776612   6.901099   8.441265
    24  C    5.764980   7.531619   7.854196   7.093827   8.346910
    25  H    5.282051   7.317069   7.457262   6.571357   8.208586
    26  H    6.794032   8.608245   8.928653   8.137412   9.418791
    27  H    5.867804   7.291439   7.729683   7.119787   8.016359
    28  C    3.434654   5.125821   5.501174   4.818578   5.986822
    29  H    3.411693   4.739339   5.215454   4.682812   5.533671
    30  H    3.434541   4.771428   5.282370   4.749164   5.565714
    31  H    2.985264   5.204238   5.305762   4.393070   6.175315
                   11         12         13         14         15
    11  H    0.000000
    12  O    4.349482   0.000000
    13  N    3.842625   2.289996   0.000000
    14  C    3.401141   3.480141   1.325546   0.000000
    15  N    4.535842   4.573639   2.284214   1.336326   0.000000
    16  H    5.447832   4.720180   2.523689   2.076617   1.035921
    17  H    4.697833   5.468510   3.201282   2.037162   1.007727
    18  H    2.377182   2.435131   3.250164   3.695342   5.031351
    19  S    8.376219   4.952432   4.568248   5.463343   5.312378
    20  C    8.964439   5.018690   5.317012   6.420690   6.516395
    21  H   10.047360   6.072755   6.377713   7.450790   7.464153
    22  H    8.626254   4.452191   5.189266   6.406894   6.711129
    23  H    8.795759   4.993355   5.206473   6.269035   6.358177
    24  C    8.874440   5.368806   5.312611   6.238374   6.208553
    25  H    8.431725   4.726516   5.079176   6.129145   6.330680
    26  H    9.949425   6.321578   6.363993   7.297220   7.217017
    27  H    8.739153   5.666304   5.273026   6.019135   5.861291
    28  C    6.570388   3.329369   2.774507   3.774255   3.885898
    29  H    6.273641   3.532031   2.608683   3.408300   3.438442
    30  H    6.360225   3.558611   2.552540   3.378121   3.344941
    31  H    6.326733   2.533000   2.783682   4.011872   4.451563
                   16         17         18         19         20
    16  H    0.000000
    17  H    1.751452   0.000000
    18  H    5.629755   5.618822   0.000000
    19  S    4.472790   6.199165   7.207730   0.000000
    20  C    5.789586   7.471013   7.428907   1.814701   0.000000
    21  H    6.674570   8.392314   8.494692   2.399001   1.091429
    22  H    6.105400   7.700592   6.885869   2.429306   1.091994
    23  H    5.663087   7.302149   7.322739   2.381404   1.091587
    24  C    5.462001   7.063085   7.581206   1.803571   2.753807
    25  H    5.721395   7.230999   6.941140   2.400570   2.877818
    26  H    6.419176   8.057274   8.590992   2.382751   2.930632
    27  H    5.113304   6.625160   7.686146   2.333414   3.702244
    28  C    3.259800   4.856902   5.456556   1.811360   2.763420
    29  H    2.842819   4.348254   5.390929   2.347654   3.657953
    30  H    2.687591   4.302548   5.477716   2.368238   3.207466
    31  H    4.021595   5.453037   4.864543   2.429270   2.715485
                   21         22         23         24         25
    21  H    0.000000
    22  H    1.795366   0.000000
    23  H    1.780746   1.785992   0.000000
    24  C    3.017399   2.841743   3.714797   0.000000
    25  H    3.295056   2.539678   3.844329   1.092081   0.000000
    26  H    2.782030   3.113527   3.966131   1.091321   1.797623
    27  H    4.002653   3.849564   4.564345   1.089823   1.809179
    28  C    3.740210   2.885382   2.948549   2.808436   2.843429
    29  H    4.540907   3.726301   3.981493   2.837521   2.900415
    30  H    4.182653   3.519411   3.028259   3.743077   3.896444
    31  H    3.765611   2.435212   2.911595   3.093814   2.742625
                   26         27         28         29         30
    26  H    0.000000
    27  H    1.798976   0.000000
    28  C    3.758930   3.058375   0.000000
    29  H    3.893560   2.702387   1.085111   0.000000
    30  H    4.615302   3.938508   1.084950   1.753456   0.000000
    31  H    4.008622   3.550569   1.092683   1.806778   1.814119
                   31
    31  H    0.000000
 Symmetry turned off by external request.
 Stoichiometry    C8H15N3O4S
 Framework group  C1[X(C8H15N3O4S)]
 Deg. of freedom    87
 Full point group                 C1      NOp   1
 Rotational constants (GHZ):      0.5831427      0.2802161      0.2050875
 Standard basis: 6-31G(d) (6D, 7F)
   274 basis functions,   532 primitive gaussians,   274 cartesian basis functions
    66 alpha electrons       66 beta electrons
       nuclear repulsion energy      1279.0322124731 Hartrees.
 NAtoms=   31 NActive=   31 NUniq=   31 SFac= 1.00D+00 NAtFMM=   60 NAOKFM=F Big=F
 Integral buffers will be    131072 words long.
 Raffenetti 2 integral format.
 Two-electron integral symmetry is turned off.
 R6APFD:  NTU= -4 IXU= 1 FactS= 1.050
 Nuclear repulsion after empirical dispersion term =     1279.0061366748 Hartrees.
 One-electron integrals computed using PRISM.
 NBasis=   274 RedAO= T EigKep=  1.16D-03  NBF=   274
 NBsUse=   274 1.00D-06 EigRej= -1.00D+00 NBFU=   274
 ExpMin= 1.17D-01 ExpMax= 2.19D+04 ExpMxC= 3.30D+03 IAcc=1 IRadAn=         1 AccDes= 0.00D+00
 Harris functional with IExCor= 3731 and IRadAn=       1 diagonalized for initial guess.
 HarFok:  IExCor= 3731 AccDes= 0.00D+00 IRadAn=         1 IDoV= 1 UseB2=F ITyADJ=14
 ICtDFT=  3500011 ScaDFX=  1.000000  1.000000  1.000000  1.000000
 FoFCou: FMM=F IPFlag=           0 FMFlag=      100000 FMFlg1=           0
         NFxFlg=           0 DoJE=T BraDBF=F KetDBF=T FulRan=T
         wScrn=  0.000000 ICntrl=     500 IOpCl=  0 I1Cent=   200000004 NGrid=           0
         NMat0=    1 NMatS0=      1 NMatT0=    0 NMatD0=    1 NMtDS0=    0 NMtDT0=    0
 Symmetry not used in FoFCou.
 Keep R1 ints in memory in canonical form, NReq=720369818.
 Requested convergence on RMS density matrix=1.00D-08 within 128 cycles.
 Requested convergence on MAX density matrix=1.00D-06.
 Requested convergence on             energy=1.00D-06.
 No special actions if energy rises.
 Integral accuracy reduced to 1.0D-05 until final iterations.
 Initial convergence to 1.0D-05 achieved.  Increase integral accuracy.
 SCF Done:  E(RAPFD) =  -1176.50896611     A.U. after   15 cycles
            NFock= 15  Conv=0.60D-08     -V/T= 2.0067

 **********************************************************************

            Population analysis using the SCF density.

 **********************************************************************

 Alpha  occ. eigenvalues --  -89.06433 -19.16382 -19.12838 -19.10455 -19.09483
 Alpha  occ. eigenvalues --  -14.41437 -14.36534 -14.32839 -10.31197 -10.29708
 Alpha  occ. eigenvalues --  -10.29008 -10.27462 -10.26771 -10.25993 -10.22706
 Alpha  occ. eigenvalues --  -10.21403  -8.07500  -6.02100  -6.01976  -6.01437
 Alpha  occ. eigenvalues --   -1.06662  -1.04926  -0.97449  -0.96158  -0.94806
 Alpha  occ. eigenvalues --   -0.93090  -0.89997  -0.87008  -0.78791  -0.76067
 Alpha  occ. eigenvalues --   -0.73961  -0.66471  -0.64994  -0.63725  -0.56994
 Alpha  occ. eigenvalues --   -0.55701  -0.54943  -0.52231  -0.50226  -0.49635
 Alpha  occ. eigenvalues --   -0.49175  -0.48457  -0.45982  -0.45114  -0.44416
 Alpha  occ. eigenvalues --   -0.44264  -0.43835  -0.42957  -0.41893  -0.40754
 Alpha  occ. eigenvalues --   -0.40605  -0.40359  -0.39328  -0.38463  -0.37156
 Alpha  occ. eigenvalues --   -0.34793  -0.34523  -0.33805  -0.26618  -0.26088
 Alpha  occ. eigenvalues --   -0.25005  -0.24349  -0.23673  -0.22869  -0.22824
 Alpha  occ. eigenvalues --   -0.20735
 Alpha virt. eigenvalues --   -0.01371   0.01748   0.02636   0.03884   0.06519
 Alpha virt. eigenvalues --    0.08280   0.09266   0.11411   0.11848   0.11859
 Alpha virt. eigenvalues --    0.12763   0.13696   0.14128   0.14510   0.15400
 Alpha virt. eigenvalues --    0.16423   0.17712   0.18199   0.18715   0.20656
 Alpha virt. eigenvalues --    0.21165   0.22890   0.25717   0.27166   0.31246
 Alpha virt. eigenvalues --    0.32643   0.34695   0.35456   0.36411   0.37546
 Alpha virt. eigenvalues --    0.39426   0.40583   0.42005   0.43313   0.44242
 Alpha virt. eigenvalues --    0.46854   0.48144   0.50212   0.51913   0.52317
 Alpha virt. eigenvalues --    0.53734   0.55955   0.56321   0.58044   0.59343
 Alpha virt. eigenvalues --    0.59397   0.61060   0.61229   0.63843   0.64144
 Alpha virt. eigenvalues --    0.64927   0.66522   0.66895   0.67670   0.68979
 Alpha virt. eigenvalues --    0.69690   0.70776   0.71618   0.73264   0.74523
 Alpha virt. eigenvalues --    0.77567   0.78172   0.79011   0.80670   0.81256
 Alpha virt. eigenvalues --    0.82675   0.83312   0.84510   0.85290   0.85396
 Alpha virt. eigenvalues --    0.85836   0.85887   0.87240   0.88327   0.88711
 Alpha virt. eigenvalues --    0.89226   0.90424   0.91370   0.91635   0.92394
 Alpha virt. eigenvalues --    0.93653   0.94985   0.95795   0.97059   0.99426
 Alpha virt. eigenvalues --    1.00101   1.01651   1.02397   1.02865   1.05162
 Alpha virt. eigenvalues --    1.06783   1.07956   1.08628   1.10711   1.11758
 Alpha virt. eigenvalues --    1.12702   1.14285   1.20549   1.21000   1.22550
 Alpha virt. eigenvalues --    1.23158   1.25932   1.27602   1.30263   1.31099
 Alpha virt. eigenvalues --    1.33597   1.34553   1.37600   1.38149   1.40485
 Alpha virt. eigenvalues --    1.41180   1.42046   1.44285   1.46225   1.46697
 Alpha virt. eigenvalues --    1.47075   1.50142   1.52126   1.53160   1.59257
 Alpha virt. eigenvalues --    1.61931   1.63369   1.65161   1.66177   1.66728
 Alpha virt. eigenvalues --    1.68399   1.72393   1.73614   1.75216   1.75836
 Alpha virt. eigenvalues --    1.76432   1.79185   1.79973   1.81057   1.82584
 Alpha virt. eigenvalues --    1.84101   1.85537   1.86159   1.89284   1.89570
 Alpha virt. eigenvalues --    1.91653   1.93389   1.95338   1.97301   1.97660
 Alpha virt. eigenvalues --    1.99842   2.01267   2.03458   2.05061   2.06988
 Alpha virt. eigenvalues --    2.08146   2.15337   2.18942   2.19246   2.19537
 Alpha virt. eigenvalues --    2.20851   2.21406   2.21537   2.21690   2.22815
 Alpha virt. eigenvalues --    2.23798   2.24363   2.27652   2.28741   2.30638
 Alpha virt. eigenvalues --    2.31715   2.36054   2.37348   2.45407   2.46545
 Alpha virt. eigenvalues --    2.47094   2.54680   2.57793   2.61191   2.63819
 Alpha virt. eigenvalues --    2.65813   2.68219   2.71802   2.74730   2.76321
 Alpha virt. eigenvalues --    2.76893   2.77639   2.83248   2.87829   2.94712
 Alpha virt. eigenvalues --    3.01726   3.02868   3.06837   3.09409   3.21980
 Alpha virt. eigenvalues --    3.28455   3.45809   3.86053   3.91298   3.96806
 Alpha virt. eigenvalues --    4.02678   4.04508   4.11413   4.17312   4.21338
 Alpha virt. eigenvalues --    4.23028   4.27900   4.28206   4.33092   4.35653
 Alpha virt. eigenvalues --    4.38334   4.57029   4.63470
          Condensed to atoms (all electrons):
               1          2          3          4          5          6
     1  C    4.131413   0.425369   0.281248   0.448738  -0.013969  -0.000002
     2  O    0.425369   8.326712  -0.103094  -0.085076   0.017243  -0.000000
     3  O    0.281248  -0.103094   8.308504  -0.085725   0.221324  -0.000000
     4  O    0.448738  -0.085076  -0.085725   8.265990   0.006072   0.000009
     5  H   -0.013969   0.017243   0.221324   0.006072   0.369325   0.000000
     6  C   -0.000002  -0.000000  -0.000000   0.000009   0.000000   4.152377
     7  C   -0.000006  -0.000000  -0.000000  -0.000005  -0.000000  -0.024120
     8  C   -0.000000   0.000000  -0.000000   0.000000   0.000000  -0.033507
     9  N   -0.000000   0.000000  -0.000000  -0.000000   0.000000   0.230655
    10  H    0.000000  -0.000000   0.000000   0.000000  -0.000000   0.000822
    11  H   -0.000000   0.000000   0.000000  -0.000000   0.000000   0.001691
    12  O   -0.000000  -0.000000  -0.000000  -0.000000   0.000000   0.594476
    13  N   -0.000039  -0.000017  -0.000001  -0.000068  -0.000000   0.367424
    14  C    0.000142   0.000009   0.000035  -0.000299  -0.000000  -0.022514
    15  N    0.004368  -0.000001   0.000105  -0.036107   0.000027   0.002875
    16  H   -0.004279  -0.000044   0.000086   0.089645  -0.000061  -0.000152
    17  H   -0.000040  -0.000001   0.000043   0.000562  -0.000003  -0.000120
    18  H    0.000000   0.000000   0.000000   0.000000  -0.000000  -0.006079
    19  S   -0.003034   0.056436   0.001038   0.006674  -0.000166   0.000182
    20  C    0.000106   0.000943   0.000000   0.000007  -0.000000  -0.000005
    21  H    0.000001   0.000003   0.000000   0.000000  -0.000000   0.000000
    22  H   -0.000002  -0.000005  -0.000000  -0.000001   0.000000  -0.000003
    23  H   -0.000000   0.000004   0.000000   0.000002  -0.000000  -0.000000
    24  C    0.000726  -0.025271  -0.000021  -0.000005  -0.000005  -0.000001
    25  H   -0.000011   0.000234   0.000000   0.000003   0.000000  -0.000002
    26  H   -0.000014   0.000484   0.000000  -0.000001  -0.000000   0.000000
    27  H   -0.000415   0.023847   0.000009   0.000230   0.000048  -0.000000
    28  C   -0.003726  -0.018815  -0.000120  -0.006346   0.000009  -0.001747
    29  H    0.001243   0.016361  -0.000573  -0.006176   0.000068   0.000005
    30  H   -0.001028  -0.000427   0.000087   0.011734  -0.000010  -0.000063
    31  H    0.000362   0.000273   0.000002   0.000772  -0.000001   0.001855
               7          8          9         10         11         12
     1  C   -0.000006  -0.000000  -0.000000   0.000000  -0.000000  -0.000000
     2  O   -0.000000   0.000000   0.000000  -0.000000   0.000000  -0.000000
     3  O   -0.000000  -0.000000  -0.000000   0.000000   0.000000  -0.000000
     4  O   -0.000005   0.000000  -0.000000   0.000000  -0.000000  -0.000000
     5  H   -0.000000   0.000000   0.000000  -0.000000   0.000000   0.000000
     6  C   -0.024120  -0.033507   0.230655   0.000822   0.001691   0.594476
     7  C    5.132510   0.605363  -0.034029   0.357572  -0.033284   0.000578
     8  C    0.605363   4.745026   0.316196  -0.037849   0.372310   0.002498
     9  N   -0.034029   0.316196   7.146333   0.003361  -0.044323  -0.106437
    10  H    0.357572  -0.037849   0.003361   0.523320  -0.003512   0.000006
    11  H   -0.033284   0.372310  -0.044323  -0.003512   0.511888  -0.000116
    12  O    0.000578   0.002498  -0.106437   0.000006  -0.000116   8.140925
    13  N   -0.053616  -0.018485  -0.109268   0.003780  -0.000397  -0.091530
    14  C    0.415228  -0.035459  -0.020243  -0.023077   0.003189   0.000612
    15  N   -0.091937   0.003996   0.000105  -0.003184  -0.000133  -0.000042
    16  H    0.004102  -0.000041   0.000020  -0.000143   0.000002  -0.000017
    17  H   -0.001033   0.000213   0.000028   0.002989  -0.000003   0.000001
    18  H    0.003411  -0.026004   0.290105  -0.000089  -0.005534   0.010432
    19  S    0.000004  -0.000000   0.000004  -0.000000   0.000000   0.000162
    20  C   -0.000000  -0.000000  -0.000000   0.000000  -0.000000  -0.000007
    21  H    0.000000   0.000000   0.000000  -0.000000  -0.000000  -0.000000
    22  H   -0.000000   0.000000  -0.000000   0.000000  -0.000000  -0.000019
    23  H   -0.000000  -0.000000  -0.000000   0.000000  -0.000000   0.000001
    24  C   -0.000000  -0.000000  -0.000000   0.000000  -0.000000   0.000001
    25  H   -0.000000   0.000000  -0.000000   0.000000  -0.000000  -0.000007
    26  H    0.000000   0.000000   0.000000  -0.000000   0.000000   0.000000
    27  H    0.000000  -0.000000  -0.000000   0.000000   0.000000   0.000000
    28  C    0.000047   0.000001  -0.000001  -0.000000   0.000000  -0.005988
    29  H    0.000006  -0.000000   0.000011  -0.000000   0.000000  -0.000191
    30  H    0.000032  -0.000002   0.000009  -0.000000   0.000000  -0.000244
    31  H   -0.000005  -0.000011   0.000186   0.000000   0.000000   0.018691
              13         14         15         16         17         18
     1  C   -0.000039   0.000142   0.004368  -0.004279  -0.000040   0.000000
     2  O   -0.000017   0.000009  -0.000001  -0.000044  -0.000001   0.000000
     3  O   -0.000001   0.000035   0.000105   0.000086   0.000043   0.000000
     4  O   -0.000068  -0.000299  -0.036107   0.089645   0.000562   0.000000
     5  H   -0.000000  -0.000000   0.000027  -0.000061  -0.000003  -0.000000
     6  C    0.367424  -0.022514   0.002875  -0.000152  -0.000120  -0.006079
     7  C   -0.053616   0.415228  -0.091937   0.004102  -0.001033   0.003411
     8  C   -0.018485  -0.035459   0.003996  -0.000041   0.000213  -0.026004
     9  N   -0.109268  -0.020243   0.000105   0.000020   0.000028   0.290105
    10  H    0.003780  -0.023077  -0.003184  -0.000143   0.002989  -0.000089
    11  H   -0.000397   0.003189  -0.000133   0.000002  -0.000003  -0.005534
    12  O   -0.091530   0.000612  -0.000042  -0.000017   0.000001   0.010432
    13  N    7.138739   0.463799  -0.090203   0.003704   0.003799   0.005918
    14  C    0.463799   4.336641   0.348814  -0.007603  -0.030379   0.000626
    15  N   -0.090203   0.348814   7.195139   0.194380   0.319380   0.000021
    16  H    0.003704  -0.007603   0.194380   0.284416  -0.010087  -0.000001
    17  H    0.003799  -0.030379   0.319380  -0.010087   0.361658  -0.000001
    18  H    0.005918   0.000626   0.000021  -0.000001  -0.000001   0.363389
    19  S    0.002747   0.000063  -0.000021   0.000092   0.000001  -0.000000
    20  C   -0.000015  -0.000000  -0.000000   0.000001  -0.000000   0.000000
    21  H    0.000000   0.000000  -0.000000   0.000000   0.000000  -0.000000
    22  H   -0.000004  -0.000000   0.000000  -0.000000  -0.000000   0.000000
    23  H   -0.000005  -0.000000   0.000000  -0.000000  -0.000000   0.000000
    24  C   -0.000023  -0.000000   0.000000  -0.000003  -0.000000   0.000000
    25  H   -0.000007  -0.000000   0.000000   0.000000  -0.000000   0.000000
    26  H    0.000000   0.000000   0.000000  -0.000000  -0.000000  -0.000000
    27  H   -0.000002  -0.000000   0.000001  -0.000008  -0.000000   0.000000
    28  C   -0.005787  -0.000674  -0.000436   0.000258   0.000009  -0.000001
    29  H    0.002312   0.000214   0.000292  -0.000589  -0.000004  -0.000000
    30  H    0.002738  -0.000150   0.000501   0.000114  -0.000002  -0.000000
    31  H   -0.004783   0.000155   0.000026  -0.000028   0.000001  -0.000007
              19         20         21         22         23         24
     1  C   -0.003034   0.000106   0.000001  -0.000002  -0.000000   0.000726
     2  O    0.056436   0.000943   0.000003  -0.000005   0.000004  -0.025271
     3  O    0.001038   0.000000   0.000000  -0.000000   0.000000  -0.000021
     4  O    0.006674   0.000007   0.000000  -0.000001   0.000002  -0.000005
     5  H   -0.000166  -0.000000  -0.000000   0.000000  -0.000000  -0.000005
     6  C    0.000182  -0.000005   0.000000  -0.000003  -0.000000  -0.000001
     7  C    0.000004  -0.000000   0.000000  -0.000000  -0.000000  -0.000000
     8  C   -0.000000  -0.000000   0.000000   0.000000  -0.000000  -0.000000
     9  N    0.000004  -0.000000   0.000000  -0.000000  -0.000000  -0.000000
    10  H   -0.000000   0.000000  -0.000000   0.000000   0.000000   0.000000
    11  H    0.000000  -0.000000  -0.000000  -0.000000  -0.000000  -0.000000
    12  O    0.000162  -0.000007  -0.000000  -0.000019   0.000001   0.000001
    13  N    0.002747  -0.000015   0.000000  -0.000004  -0.000005  -0.000023
    14  C    0.000063  -0.000000   0.000000  -0.000000  -0.000000  -0.000000
    15  N   -0.000021  -0.000000  -0.000000   0.000000   0.000000   0.000000
    16  H    0.000092   0.000001   0.000000  -0.000000  -0.000000  -0.000003
    17  H    0.000001  -0.000000   0.000000  -0.000000  -0.000000  -0.000000
    18  H   -0.000000   0.000000  -0.000000   0.000000   0.000000   0.000000
    19  S   14.969544   0.184064  -0.031119  -0.023079  -0.032580   0.252969
    20  C    0.184064   5.516315   0.365316   0.355862   0.372053  -0.041597
    21  H   -0.031119   0.365316   0.477004  -0.022952  -0.018147  -0.000961
    22  H   -0.023079   0.355862  -0.022952   0.479657  -0.020737  -0.005757
    23  H   -0.032580   0.372053  -0.018147  -0.020737   0.452249   0.003036
    24  C    0.252969  -0.041597  -0.000961  -0.005757   0.003036   5.468283
    25  H   -0.033927  -0.005745  -0.000290   0.006090  -0.000015   0.358058
    26  H   -0.032108  -0.000166   0.002045  -0.000405  -0.000003   0.361070
    27  H   -0.035000   0.002654  -0.000020   0.000009  -0.000058   0.350582
    28  C    0.208913  -0.041170   0.002752  -0.003398  -0.000360  -0.030638
    29  H   -0.036311   0.002103  -0.000075   0.000108   0.000007  -0.002316
    30  H   -0.031457   0.000795  -0.000042  -0.000196   0.001008   0.002319
    31  H   -0.032706  -0.005245   0.000162   0.005099  -0.000343  -0.002555
              25         26         27         28         29         30
     1  C   -0.000011  -0.000014  -0.000415  -0.003726   0.001243  -0.001028
     2  O    0.000234   0.000484   0.023847  -0.018815   0.016361  -0.000427
     3  O    0.000000   0.000000   0.000009  -0.000120  -0.000573   0.000087
     4  O    0.000003  -0.000001   0.000230  -0.006346  -0.006176   0.011734
     5  H    0.000000  -0.000000   0.000048   0.000009   0.000068  -0.000010
     6  C   -0.000002   0.000000  -0.000000  -0.001747   0.000005  -0.000063
     7  C   -0.000000   0.000000   0.000000   0.000047   0.000006   0.000032
     8  C    0.000000   0.000000  -0.000000   0.000001  -0.000000  -0.000002
     9  N   -0.000000   0.000000  -0.000000  -0.000001   0.000011   0.000009
    10  H    0.000000  -0.000000   0.000000  -0.000000  -0.000000  -0.000000
    11  H   -0.000000   0.000000   0.000000   0.000000   0.000000   0.000000
    12  O   -0.000007   0.000000   0.000000  -0.005988  -0.000191  -0.000244
    13  N   -0.000007   0.000000  -0.000002  -0.005787   0.002312   0.002738
    14  C   -0.000000   0.000000  -0.000000  -0.000674   0.000214  -0.000150
    15  N    0.000000   0.000000   0.000001  -0.000436   0.000292   0.000501
    16  H    0.000000  -0.000000  -0.000008   0.000258  -0.000589   0.000114
    17  H   -0.000000  -0.000000  -0.000000   0.000009  -0.000004  -0.000002
    18  H    0.000000  -0.000000   0.000000  -0.000001  -0.000000  -0.000000
    19  S   -0.033927  -0.032108  -0.035000   0.208913  -0.036311  -0.031457
    20  C   -0.005745  -0.000166   0.002654  -0.041170   0.002103   0.000795
    21  H   -0.000290   0.002045  -0.000020   0.002752  -0.000075  -0.000042
    22  H    0.006090  -0.000405   0.000009  -0.003398   0.000108  -0.000196
    23  H   -0.000015  -0.000003  -0.000058  -0.000360   0.000007   0.001008
    24  C    0.358058   0.361070   0.350582  -0.030638  -0.002316   0.002319
    25  H    0.492651  -0.023853  -0.015289  -0.002920  -0.000218   0.000017
    26  H   -0.023853   0.484589  -0.012391   0.002275   0.000129  -0.000053
    27  H   -0.015289  -0.012391   0.383384  -0.000984   0.001790   0.000035
    28  C   -0.002920   0.002275  -0.000984   5.509605   0.366544   0.363562
    29  H   -0.000218   0.000129   0.001790   0.366544   0.418521  -0.012319
    30  H    0.000017  -0.000053   0.000035   0.363562  -0.012319   0.401541
    31  H    0.003224  -0.000032  -0.000090   0.329395  -0.016010  -0.014020
              31
     1  C    0.000362
     2  O    0.000273
     3  O    0.000002
     4  O    0.000772
     5  H   -0.000001
     6  C    0.001855
     7  C   -0.000005
     8  C   -0.000011
     9  N    0.000186
    10  H    0.000000
    11  H    0.000000
    12  O    0.018691
    13  N   -0.004783
    14  C    0.000155
    15  N    0.000026
    16  H   -0.000028
    17  H    0.000001
    18  H   -0.000007
    19  S   -0.032706
    20  C   -0.005245
    21  H    0.000162
    22  H    0.005099
    23  H   -0.000343
    24  C   -0.002555
    25  H    0.003224
    26  H   -0.000032
    27  H   -0.000090
    28  C    0.329395
    29  H   -0.016010
    30  H   -0.014020
    31  H    0.480515
 Mulliken charges:
               1
     1  C    0.732849
     2  O   -0.635167
     3  O   -0.622948
     4  O   -0.610629
     5  H    0.400101
     6  C    0.735944
     7  C   -0.280816
     8  C    0.105755
     9  N   -0.672713
    10  H    0.176003
    11  H    0.198221
    12  O   -0.563784
    13  N   -0.620710
    14  C    0.570871
    15  N   -0.847966
    16  H    0.446236
    17  H    0.352989
    18  H    0.363813
    19  S    0.608614
    20  C   -0.706270
    21  H    0.226321
    22  H    0.229732
    23  H    0.243888
    24  C   -0.687893
    25  H    0.222007
    26  H    0.218434
    27  H    0.301669
    28  C   -0.660257
    29  H    0.265068
    30  H    0.275521
    31  H    0.235117
 Sum of Mulliken charges =  -0.00000
 Mulliken charges with hydrogens summed into heavy atoms:
               1
     1  C    0.732849
     2  O   -0.635167
     3  O   -0.222847
     4  O   -0.610629
     6  C    0.735944
     7  C   -0.104813
     8  C    0.303976
     9  N   -0.308899
    12  O   -0.563784
    13  N   -0.620710
    14  C    0.570871
    15  N   -0.048741
    19  S    0.608614
    20  C   -0.006329
    24  C    0.054218
    28  C    0.115449
 Electronic spatial extent (au):  <R**2>=           5185.4564
 Charge=              0.0000 electrons
 Dipole moment (field-independent basis, Debye):
    X=              1.5450    Y=              4.2130    Z=              1.6234  Tot=              4.7720
 Quadrupole moment (field-independent basis, Debye-Ang):
   XX=            -70.9531   YY=            -91.4700   ZZ=            -98.7337
   XY=            -27.7612   XZ=              0.1367   YZ=             -5.5292
 Traceless Quadrupole moment (field-independent basis, Debye-Ang):
   XX=             16.0992   YY=             -4.4177   ZZ=            -11.6815
   XY=            -27.7612   XZ=              0.1367   YZ=             -5.5292
 Octapole moment (field-independent basis, Debye-Ang**2):
  XXX=             97.0183  YYY=            -11.5093  ZZZ=              1.3618  XYY=            -27.4486
  XXY=             28.2057  XXZ=             32.0927  XZZ=            -14.7531  YZZ=              3.1267
  YYZ=             -1.6246  XYZ=             16.7145
 Hexadecapole moment (field-independent basis, Debye-Ang**3):
 XXXX=          -3372.7621 YYYY=          -1926.9815 ZZZZ=           -357.0298 XXXY=            149.2587
 XXXZ=             48.6290 YYYX=             58.1836 YYYZ=            -31.4624 ZZZX=            -77.6441
 ZZZY=            -15.4476 XXYY=           -871.2026 XXZZ=           -744.2570 YYZZ=           -365.6620
 XXYZ=             -6.8323 YYXZ=            -55.9341 ZZXY=             92.0265
 N-N= 1.279006136675D+03 E-N=-5.325155181493D+03  KE= 1.168707197688D+03
 R6APFD:  NTU= -4 IXU= 1 FactS= 1.050
 Calling FoFJK, ICntrl=      2127 FMM=F ISym2X=0 I1Cent= 0 IOpClX= 0 NMat=1 NMatS=1 NMatT=0.
 -------------------------------------------------------------------
 Center     Atomic                   Forces (Hartrees/Bohr)
 Number     Number              X              Y              Z
 -------------------------------------------------------------------
      1        6           0.001220061   -0.001581505   -0.000821937
      2        8          -0.004082557    0.004897089    0.002957872
      3        8           0.000219533   -0.004772769    0.001437300
      4        8           0.003685838   -0.000450682   -0.004388066
      5        1          -0.000059875    0.000280532    0.000024720
      6        6          -0.000523591   -0.005363521   -0.001191177
      7        6          -0.004642906   -0.000632225   -0.001277997
      8        6           0.001377992    0.003505371    0.000990926
      9        7           0.002235002   -0.001813491    0.000217023
     10        1           0.000753122   -0.001192148   -0.000019566
     11        1           0.000890857   -0.000039479    0.000236751
     12        8          -0.002334011    0.007422363    0.000879812
     13        7           0.000867400   -0.000095779    0.000152296
     14        6           0.002531432   -0.002037820    0.000240725
     15        7          -0.000318579   -0.000234111   -0.000385414
     16        1          -0.001639816   -0.000552734   -0.000217121
     17        1          -0.000621065    0.000669522   -0.000006228
     18        1           0.000136583   -0.000506224   -0.000047336
     19       16           0.000501829   -0.004809628    0.001403084
     20        6          -0.000005718    0.000317165   -0.000290147
     21        1          -0.000764836    0.000787964   -0.000304674
     22        1           0.000414621    0.001418160   -0.000007006
     23        1           0.000306946    0.000097326   -0.000673852
     24        6          -0.000170806    0.000089462   -0.000916063
     25        1           0.000189430    0.000385450    0.000979794
     26        1          -0.000701007    0.000302812    0.000341921
     27        1          -0.000051403   -0.000210794    0.000334829
     28        6          -0.000427719    0.003274420    0.000492880
     29        1           0.000199840    0.000871675   -0.000382578
     30        1          -0.000024416    0.000090776    0.000260175
     31        1           0.000837820   -0.000117178   -0.000020946
 -------------------------------------------------------------------
 Cartesian Forces:  Max     0.007422363 RMS     0.001840379

 GradGradGradGradGradGradGradGradGradGradGradGradGradGradGradGradGradGrad
 Berny optimization.
 FormGI is forming the generalized inverse of G from B-inverse, IUseBI=4.
 Internal  Forces:  Max     0.008325058 RMS     0.001643431
 Search for a local minimum.
 Step number   1 out of a maximum of  145
 All quantities printed in internal units (Hartrees-Bohrs-Radians)
 Mixed Optimization -- RFO/linear search
 Second derivative matrix not updated -- first step.
 ITU=  0
     Eigenvalues ---    0.00230   0.00230   0.00230   0.00230   0.00291
     Eigenvalues ---    0.00487   0.00539   0.01714   0.01758   0.01917
     Eigenvalues ---    0.01949   0.01990   0.01995   0.02028   0.02141
     Eigenvalues ---    0.02187   0.02498   0.02533   0.02534   0.03261
     Eigenvalues ---    0.03374   0.03580   0.04899   0.06322   0.06644
     Eigenvalues ---    0.06984   0.07109   0.07132   0.07531   0.07691
     Eigenvalues ---    0.07897   0.10215   0.12287   0.13038   0.13752
     Eigenvalues ---    0.15944   0.15999   0.16000   0.16000   0.16000
     Eigenvalues ---    0.16000   0.16000   0.16000   0.16000   0.16000
     Eigenvalues ---    0.16000   0.16000   0.16000   0.16000   0.22063
     Eigenvalues ---    0.22802   0.23494   0.24907   0.24992   0.24998
     Eigenvalues ---    0.24998   0.25000   0.25000   0.25242   0.25835
     Eigenvalues ---    0.34504   0.34573   0.34583   0.34630   0.34648
     Eigenvalues ---    0.34660   0.34777   0.35384   0.35403   0.35432
     Eigenvalues ---    0.35761   0.37166   0.41885   0.42236   0.45885
     Eigenvalues ---    0.46355   0.49549   0.49571   0.52397   0.53697
     Eigenvalues ---    0.54246   0.57765   0.59002   0.80283   0.84655
     Eigenvalues ---    0.938421000.000001000.000001000.000001000.00000
     Eigenvalues --- 1000.000001000.000001000.000001000.000001000.00000
     Eigenvalues --- 1000.000001000.000001000.000001000.000001000.00000
     Eigenvalues --- 1000.000001000.000001000.000001000.000001000.00000
     Eigenvalues --- 1000.000001000.000001000.000001000.000001000.00000
     Eigenvalues --- 1000.000001000.000001000.000001000.000001000.00000
     Eigenvalues --- 1000.000001000.000001000.000001000.000001000.00000
     Eigenvalues --- 1000.000001000.000001000.000001000.000001000.00000
     Eigenvalues --- 1000.000001000.000001000.000001000.000001000.00000
     Eigenvalues --- 1000.000001000.000001000.000001000.000001000.00000
 RFO step:  Lambda=-2.46298615D-03 EMin= 2.30000000D-03
 Linear search not attempted -- first point.
 Iteration  1 RMS(Cart)=  0.23673426 RMS(Int)=  0.03814395
 Iteration  2 RMS(Cart)=  0.29639070 RMS(Int)=  0.02633910
 Iteration  3 RMS(Cart)=  0.19220006 RMS(Int)=  0.02084583
 Iteration  4 RMS(Cart)=  0.10154082 RMS(Int)=  0.02063848
 Iteration  5 RMS(Cart)=  0.10726416 RMS(Int)=  0.02067586
 Iteration  6 RMS(Cart)=  0.10231665 RMS(Int)=  0.02058088
 Iteration  7 RMS(Cart)=  0.09871308 RMS(Int)=  0.02055704
 Iteration  8 RMS(Cart)=  0.09940884 RMS(Int)=  0.02051742
 Iteration  9 RMS(Cart)=  0.09979389 RMS(Int)=  0.02056884
 Iteration 10 RMS(Cart)=  0.09959057 RMS(Int)=  0.02052114
 Iteration 11 RMS(Cart)=  0.09937443 RMS(Int)=  0.02056205
 Iteration 12 RMS(Cart)=  0.09941678 RMS(Int)=  0.02051751
 Iteration 13 RMS(Cart)=  0.09943836 RMS(Int)=  0.02056272
 Iteration 14 RMS(Cart)=  0.09942651 RMS(Int)=  0.02051771
 Iteration 15 RMS(Cart)=  0.09941369 RMS(Int)=  0.02056232
 Iteration 16 RMS(Cart)=  0.09941614 RMS(Int)=  0.02051750
 Iteration 17 RMS(Cart)=  0.09941735 RMS(Int)=  0.02056236
 Iteration 18 RMS(Cart)=  0.09941666 RMS(Int)=  0.02051751
 Iteration 19 RMS(Cart)=  0.09941590 RMS(Int)=  0.02056233
 Iteration 20 RMS(Cart)=  0.09941604 RMS(Int)=  0.02051750
 Iteration 21 RMS(Cart)=  0.09941611 RMS(Int)=  0.02056234
 Iteration 22 RMS(Cart)=  0.09941607 RMS(Int)=  0.02051750
 Iteration 23 RMS(Cart)=  0.09941602 RMS(Int)=  0.02056233
 Iteration 24 RMS(Cart)=  0.09941604 RMS(Int)=  0.02051750
 Iteration 25 RMS(Cart)=  0.09941605 RMS(Int)=  0.02056233
 Iteration 26 RMS(Cart)=  0.09941604 RMS(Int)=  0.02051750
 Iteration 27 RMS(Cart)=  0.09941603 RMS(Int)=  0.02056233
 Iteration 28 RMS(Cart)=  0.09941603 RMS(Int)=  0.02051750
 Iteration 29 RMS(Cart)=  0.09941603 RMS(Int)=  0.02056233
 Iteration 30 RMS(Cart)=  0.09941603 RMS(Int)=  0.02051750
 Iteration 31 RMS(Cart)=  0.09941603 RMS(Int)=  0.02056233
 Iteration 32 RMS(Cart)=  0.09941603 RMS(Int)=  0.02051750
 Iteration 33 RMS(Cart)=  0.09941604 RMS(Int)=  0.02056233
 Iteration 34 RMS(Cart)=  0.09941604 RMS(Int)=  0.02051750
 Iteration 35 RMS(Cart)=  0.09941604 RMS(Int)=  0.02056233
 Iteration 36 RMS(Cart)=  0.09941604 RMS(Int)=  0.02051750
 Iteration 37 RMS(Cart)=  0.09941603 RMS(Int)=  0.02056233
 Iteration 38 RMS(Cart)=  0.09941603 RMS(Int)=  0.02051750
 Iteration 39 RMS(Cart)=  0.09941603 RMS(Int)=  0.02056233
 Iteration 40 RMS(Cart)=  0.09941604 RMS(Int)=  0.02051750
 Iteration 41 RMS(Cart)=  0.09941604 RMS(Int)=  0.02056233
 Iteration 42 RMS(Cart)=  0.09941604 RMS(Int)=  0.02051750
 Iteration 43 RMS(Cart)=  0.09941604 RMS(Int)=  0.02056233
 Iteration 44 RMS(Cart)=  0.09941604 RMS(Int)=  0.02051750
 Iteration 45 RMS(Cart)=  0.09941604 RMS(Int)=  0.02056233
 Iteration 46 RMS(Cart)=  0.09941603 RMS(Int)=  0.02051750
 Iteration 47 RMS(Cart)=  0.09941604 RMS(Int)=  0.02056233
 Iteration 48 RMS(Cart)=  0.09941604 RMS(Int)=  0.02051750
 Iteration 49 RMS(Cart)=  0.09941604 RMS(Int)=  0.02056233
 Iteration 50 RMS(Cart)=  0.09941603 RMS(Int)=  0.02051750
 Iteration 51 RMS(Cart)=  0.09941603 RMS(Int)=  0.02056233
 Iteration 52 RMS(Cart)=  0.09941603 RMS(Int)=  0.02051750
 Iteration 53 RMS(Cart)=  0.09941603 RMS(Int)=  0.02056233
 Iteration 54 RMS(Cart)=  0.09941603 RMS(Int)=  0.02051750
 Iteration 55 RMS(Cart)=  0.09941603 RMS(Int)=  0.02056233
 Iteration 56 RMS(Cart)=  0.09941603 RMS(Int)=  0.02051750
 Iteration 57 RMS(Cart)=  0.09941603 RMS(Int)=  0.02056233
 Iteration 58 RMS(Cart)=  0.09941603 RMS(Int)=  0.02051750
 Iteration 59 RMS(Cart)=  0.09941603 RMS(Int)=  0.02056233
 Iteration 60 RMS(Cart)=  0.09941603 RMS(Int)=  0.02051750
 Iteration 61 RMS(Cart)=  0.09941603 RMS(Int)=  0.02056233
 Iteration 62 RMS(Cart)=  0.09941603 RMS(Int)=  0.02051750
 Iteration 63 RMS(Cart)=  0.09941603 RMS(Int)=  0.02056233
 Iteration 64 RMS(Cart)=  0.09941603 RMS(Int)=  0.02051750
 Iteration 65 RMS(Cart)=  0.09941603 RMS(Int)=  0.02056233
 Iteration 66 RMS(Cart)=  0.09941604 RMS(Int)=  0.02051750
 Iteration 67 RMS(Cart)=  0.09941604 RMS(Int)=  0.02056233
 Iteration 68 RMS(Cart)=  0.09941604 RMS(Int)=  0.02051750
 Iteration 69 RMS(Cart)=  0.09941604 RMS(Int)=  0.02056233
 Iteration 70 RMS(Cart)=  0.09941604 RMS(Int)=  0.02051750
 Iteration 71 RMS(Cart)=  0.09941603 RMS(Int)=  0.02056233
 Iteration 72 RMS(Cart)=  0.09941604 RMS(Int)=  0.02051750
 Iteration 73 RMS(Cart)=  0.09941605 RMS(Int)=  0.02056233
 Iteration 74 RMS(Cart)=  0.09941603 RMS(Int)=  0.02051750
 Iteration 75 RMS(Cart)=  0.09941604 RMS(Int)=  0.02056233
 Iteration 76 RMS(Cart)=  0.09941604 RMS(Int)=  0.02051750
 Iteration 77 RMS(Cart)=  0.09941603 RMS(Int)=  0.02056233
 Iteration 78 RMS(Cart)=  0.09941603 RMS(Int)=  0.02051750
 Iteration 79 RMS(Cart)=  0.09941603 RMS(Int)=  0.02056233
 Iteration 80 RMS(Cart)=  0.09941603 RMS(Int)=  0.02051750
 Iteration 81 RMS(Cart)=  0.09941603 RMS(Int)=  0.02056233
 Iteration 82 RMS(Cart)=  0.09941603 RMS(Int)=  0.02051750
 Iteration 83 RMS(Cart)=  0.09941603 RMS(Int)=  0.02056233
 Iteration 84 RMS(Cart)=  0.09941603 RMS(Int)=  0.02051750
 Iteration 85 RMS(Cart)=  0.09941603 RMS(Int)=  0.02056233
 Iteration 86 RMS(Cart)=  0.09941603 RMS(Int)=  0.02051750
 Iteration 87 RMS(Cart)=  0.09941603 RMS(Int)=  0.02056233
 Iteration 88 RMS(Cart)=  0.09941603 RMS(Int)=  0.02051750
 Iteration 89 RMS(Cart)=  0.09941603 RMS(Int)=  0.02056233
 Iteration 90 RMS(Cart)=  0.09941603 RMS(Int)=  0.02051750
 Iteration 91 RMS(Cart)=  0.09941603 RMS(Int)=  0.02056233
 Iteration 92 RMS(Cart)=  0.09941603 RMS(Int)=  0.02051750
 Iteration 93 RMS(Cart)=  0.09941603 RMS(Int)=  0.02056233
 Iteration 94 RMS(Cart)=  0.09941603 RMS(Int)=  0.02051750
 Iteration 95 RMS(Cart)=  0.09941603 RMS(Int)=  0.02056233
 Iteration 96 RMS(Cart)=  0.09941603 RMS(Int)=  0.02051750
 Iteration 97 RMS(Cart)=  0.09941603 RMS(Int)=  0.02056233
 Iteration 98 RMS(Cart)=  0.09941603 RMS(Int)=  0.02051750
 Iteration 99 RMS(Cart)=  0.09941603 RMS(Int)=  0.02056233
 Iteration100 RMS(Cart)=  0.09941603 RMS(Int)=  0.02051750
 New curvilinear step not converged.
 ITry= 1 IFail=1 DXMaxC= 2.12D+00 DCOld= 1.00D+10 DXMaxT= 3.00D-01 DXLimC= 3.00D+00 Rises=F
 Iteration  1 RMS(Cart)=  0.23458403 RMS(Int)=  0.03346865
 Iteration  2 RMS(Cart)=  0.28704502 RMS(Int)=  0.02253508
 Iteration  3 RMS(Cart)=  0.15765883 RMS(Int)=  0.01842200
 Iteration  4 RMS(Cart)=  0.10184272 RMS(Int)=  0.01841237
 Iteration  5 RMS(Cart)=  0.10576350 RMS(Int)=  0.01849720
 Iteration  6 RMS(Cart)=  0.10187153 RMS(Int)=  0.01843502
 Iteration  7 RMS(Cart)=  0.09829025 RMS(Int)=  0.01836700
 Iteration  8 RMS(Cart)=  0.09808425 RMS(Int)=  0.01834544
 Iteration  9 RMS(Cart)=  0.09731111 RMS(Int)=  0.01834043
 Iteration 10 RMS(Cart)=  0.09707817 RMS(Int)=  0.01832329
 Iteration 11 RMS(Cart)=  0.09666376 RMS(Int)=  0.01832655
 Iteration 12 RMS(Cart)=  0.09659448 RMS(Int)=  0.01831275
 Iteration 13 RMS(Cart)=  0.09644266 RMS(Int)=  0.01832151
 Iteration 14 RMS(Cart)=  0.09641215 RMS(Int)=  0.01830881
 Iteration 15 RMS(Cart)=  0.09634983 RMS(Int)=  0.01831945
 Iteration 16 RMS(Cart)=  0.09633817 RMS(Int)=  0.01830721
 Iteration 17 RMS(Cart)=  0.09631365 RMS(Int)=  0.01831864
 Iteration 18 RMS(Cart)=  0.09630897 RMS(Int)=  0.01830658
 Iteration 19 RMS(Cart)=  0.09629920 RMS(Int)=  0.01831831
 Iteration 20 RMS(Cart)=  0.09629734 RMS(Int)=  0.01830633
 Iteration 21 RMS(Cart)=  0.09629347 RMS(Int)=  0.01831818
 Iteration 22 RMS(Cart)=  0.09629272 RMS(Int)=  0.01830623
 Iteration 23 RMS(Cart)=  0.09629118 RMS(Int)=  0.01831813
 Iteration 24 RMS(Cart)=  0.09629089 RMS(Int)=  0.01830619
 Iteration 25 RMS(Cart)=  0.09629029 RMS(Int)=  0.01831811
 Iteration 26 RMS(Cart)=  0.09629017 RMS(Int)=  0.01830618
 Iteration 27 RMS(Cart)=  0.09628992 RMS(Int)=  0.01831811
 Iteration 28 RMS(Cart)=  0.09628987 RMS(Int)=  0.01830617
 Iteration 29 RMS(Cart)=  0.09628978 RMS(Int)=  0.01831810
 Iteration 30 RMS(Cart)=  0.09628977 RMS(Int)=  0.01830617
 Iteration 31 RMS(Cart)=  0.09628973 RMS(Int)=  0.01831810
 Iteration 32 RMS(Cart)=  0.09628971 RMS(Int)=  0.01830617
 Iteration 33 RMS(Cart)=  0.09628970 RMS(Int)=  0.01831810
 Iteration 34 RMS(Cart)=  0.09628971 RMS(Int)=  0.01830617
 Iteration 35 RMS(Cart)=  0.09628970 RMS(Int)=  0.01831810
 Iteration 36 RMS(Cart)=  0.09628969 RMS(Int)=  0.01830617
 Iteration 37 RMS(Cart)=  0.09628969 RMS(Int)=  0.01831810
 Iteration 38 RMS(Cart)=  0.09628969 RMS(Int)=  0.01830617
 Iteration 39 RMS(Cart)=  0.09628969 RMS(Int)=  0.01831810
 Iteration 40 RMS(Cart)=  0.09628969 RMS(Int)=  0.01830617
 Iteration 41 RMS(Cart)=  0.09628970 RMS(Int)=  0.01831810
 Iteration 42 RMS(Cart)=  0.09628971 RMS(Int)=  0.01830617
 Iteration 43 RMS(Cart)=  0.09628970 RMS(Int)=  0.01831810
 Iteration 44 RMS(Cart)=  0.09628969 RMS(Int)=  0.01830617
 Iteration 45 RMS(Cart)=  0.09628969 RMS(Int)=  0.01831810
 Iteration 46 RMS(Cart)=  0.09628969 RMS(Int)=  0.01830617
 Iteration 47 RMS(Cart)=  0.09628968 RMS(Int)=  0.01831810
 Iteration 48 RMS(Cart)=  0.09628968 RMS(Int)=  0.01830617
 Iteration 49 RMS(Cart)=  0.09628968 RMS(Int)=  0.01831810
 Iteration 50 RMS(Cart)=  0.09628968 RMS(Int)=  0.01830617
 Iteration 51 RMS(Cart)=  0.09628968 RMS(Int)=  0.01831810
 Iteration 52 RMS(Cart)=  0.09628968 RMS(Int)=  0.01830617
 Iteration 53 RMS(Cart)=  0.09628968 RMS(Int)=  0.01831810
 Iteration 54 RMS(Cart)=  0.09628968 RMS(Int)=  0.01830617
 Iteration 55 RMS(Cart)=  0.09628969 RMS(Int)=  0.01831810
 Iteration 56 RMS(Cart)=  0.09628969 RMS(Int)=  0.01830617
 Iteration 57 RMS(Cart)=  0.09628969 RMS(Int)=  0.01831810
 Iteration 58 RMS(Cart)=  0.09628969 RMS(Int)=  0.01830617
 Iteration 59 RMS(Cart)=  0.09628969 RMS(Int)=  0.01831810
 Iteration 60 RMS(Cart)=  0.09628969 RMS(Int)=  0.01830617
 Iteration 61 RMS(Cart)=  0.09628969 RMS(Int)=  0.01831810
 Iteration 62 RMS(Cart)=  0.09628968 RMS(Int)=  0.01830617
 Iteration 63 RMS(Cart)=  0.09628968 RMS(Int)=  0.01831810
 Iteration 64 RMS(Cart)=  0.09628968 RMS(Int)=  0.01830617
 Iteration 65 RMS(Cart)=  0.09628968 RMS(Int)=  0.01831810
 Iteration 66 RMS(Cart)=  0.09628968 RMS(Int)=  0.01830617
 Iteration 67 RMS(Cart)=  0.09628968 RMS(Int)=  0.01831810
 Iteration 68 RMS(Cart)=  0.09628968 RMS(Int)=  0.01830617
 Iteration 69 RMS(Cart)=  0.09628968 RMS(Int)=  0.01831810
 Iteration 70 RMS(Cart)=  0.09628968 RMS(Int)=  0.01830617
 Iteration 71 RMS(Cart)=  0.09628968 RMS(Int)=  0.01831810
 Iteration 72 RMS(Cart)=  0.09628968 RMS(Int)=  0.01830617
 Iteration 73 RMS(Cart)=  0.09628968 RMS(Int)=  0.01831810
 Iteration 74 RMS(Cart)=  0.09628968 RMS(Int)=  0.01830617
 Iteration 75 RMS(Cart)=  0.09628968 RMS(Int)=  0.01831810
 Iteration 76 RMS(Cart)=  0.09628968 RMS(Int)=  0.01830617
 Iteration 77 RMS(Cart)=  0.09628968 RMS(Int)=  0.01831810
 Iteration 78 RMS(Cart)=  0.09628968 RMS(Int)=  0.01830617
 Iteration 79 RMS(Cart)=  0.09628968 RMS(Int)=  0.01831810
 Iteration 80 RMS(Cart)=  0.09628968 RMS(Int)=  0.01830617
 Iteration 81 RMS(Cart)=  0.09628968 RMS(Int)=  0.01831810
 Iteration 82 RMS(Cart)=  0.09628968 RMS(Int)=  0.01830617
 Iteration 83 RMS(Cart)=  0.09628968 RMS(Int)=  0.01831810
 Iteration 84 RMS(Cart)=  0.09628968 RMS(Int)=  0.01830617
 Iteration 85 RMS(Cart)=  0.09628968 RMS(Int)=  0.01831810
 Iteration 86 RMS(Cart)=  0.09628968 RMS(Int)=  0.01830617
 Iteration 87 RMS(Cart)=  0.09628968 RMS(Int)=  0.01831810
 Iteration 88 RMS(Cart)=  0.09628968 RMS(Int)=  0.01830617
 Iteration 89 RMS(Cart)=  0.09628968 RMS(Int)=  0.01831810
 Iteration 90 RMS(Cart)=  0.09628968 RMS(Int)=  0.01830617
 Iteration 91 RMS(Cart)=  0.09628968 RMS(Int)=  0.01831810
 Iteration 92 RMS(Cart)=  0.09628968 RMS(Int)=  0.01830617
 Iteration 93 RMS(Cart)=  0.09628968 RMS(Int)=  0.01831810
 Iteration 94 RMS(Cart)=  0.09628968 RMS(Int)=  0.01830617
 Iteration 95 RMS(Cart)=  0.09628968 RMS(Int)=  0.01831810
 Iteration 96 RMS(Cart)=  0.09628968 RMS(Int)=  0.01830617
 Iteration 97 RMS(Cart)=  0.09628968 RMS(Int)=  0.01831810
 Iteration 98 RMS(Cart)=  0.09628968 RMS(Int)=  0.01830617
 Iteration 99 RMS(Cart)=  0.09628968 RMS(Int)=  0.01831810
 Iteration100 RMS(Cart)=  0.09628968 RMS(Int)=  0.01830617
 New curvilinear step not converged.
 ITry= 2 IFail=1 DXMaxC= 1.94D+00 DCOld= 1.00D+10 DXMaxT= 3.00D-01 DXLimC= 3.00D+00 Rises=F
 Iteration  1 RMS(Cart)=  0.23308966 RMS(Int)=  0.02880383
 Iteration  2 RMS(Cart)=  0.26471314 RMS(Int)=  0.01902400
 Iteration  3 RMS(Cart)=  0.13120232 RMS(Int)=  0.01625430
 Iteration  4 RMS(Cart)=  0.10020812 RMS(Int)=  0.01623079
 Iteration  5 RMS(Cart)=  0.09779390 RMS(Int)=  0.01616537
 Iteration  6 RMS(Cart)=  0.09639810 RMS(Int)=  0.01616311
 Iteration  7 RMS(Cart)=  0.09473424 RMS(Int)=  0.01610276
 Iteration  8 RMS(Cart)=  0.09409301 RMS(Int)=  0.01610902
 Iteration  9 RMS(Cart)=  0.09311967 RMS(Int)=  0.01606786
 Iteration 10 RMS(Cart)=  0.09273082 RMS(Int)=  0.01607841
 Iteration 11 RMS(Cart)=  0.09214134 RMS(Int)=  0.01604724
 Iteration 12 RMS(Cart)=  0.09191491 RMS(Int)=  0.01606041
 Iteration 13 RMS(Cart)=  0.09156664 RMS(Int)=  0.01603523
 Iteration 14 RMS(Cart)=  0.09143463 RMS(Int)=  0.01604995
 Iteration 15 RMS(Cart)=  0.09123034 RMS(Int)=  0.01602825
 Iteration 16 RMS(Cart)=  0.09115360 RMS(Int)=  0.01604386
 Iteration 17 RMS(Cart)=  0.09103434 RMS(Int)=  0.01602420
 Iteration 18 RMS(Cart)=  0.09098976 RMS(Int)=  0.01604033
 Iteration 19 RMS(Cart)=  0.09092034 RMS(Int)=  0.01602184
 Iteration 20 RMS(Cart)=  0.09089447 RMS(Int)=  0.01603828
 Iteration 21 RMS(Cart)=  0.09085412 RMS(Int)=  0.01602048
 Iteration 22 RMS(Cart)=  0.09083911 RMS(Int)=  0.01603709
 Iteration 23 RMS(Cart)=  0.09081568 RMS(Int)=  0.01601968
 Iteration 24 RMS(Cart)=  0.09080696 RMS(Int)=  0.01603640
 Iteration 25 RMS(Cart)=  0.09079337 RMS(Int)=  0.01601923
 Iteration 26 RMS(Cart)=  0.09078831 RMS(Int)=  0.01603600
 Iteration 27 RMS(Cart)=  0.09078042 RMS(Int)=  0.01601896
 Iteration 28 RMS(Cart)=  0.09077749 RMS(Int)=  0.01603577
 Iteration 29 RMS(Cart)=  0.09077292 RMS(Int)=  0.01601880
 Iteration 30 RMS(Cart)=  0.09077122 RMS(Int)=  0.01603563
 Iteration 31 RMS(Cart)=  0.09076857 RMS(Int)=  0.01601871
 Iteration 32 RMS(Cart)=  0.09076758 RMS(Int)=  0.01603556
 Iteration 33 RMS(Cart)=  0.09076604 RMS(Int)=  0.01601866
 Iteration 34 RMS(Cart)=  0.09076546 RMS(Int)=  0.01603551
 Iteration 35 RMS(Cart)=  0.09076457 RMS(Int)=  0.01601863
 Iteration 36 RMS(Cart)=  0.09076424 RMS(Int)=  0.01603548
 Iteration 37 RMS(Cart)=  0.09076372 RMS(Int)=  0.01601862
 Iteration 38 RMS(Cart)=  0.09076353 RMS(Int)=  0.01603547
 Iteration 39 RMS(Cart)=  0.09076323 RMS(Int)=  0.01601861
 Iteration 40 RMS(Cart)=  0.09076312 RMS(Int)=  0.01603546
 Iteration 41 RMS(Cart)=  0.09076295 RMS(Int)=  0.01601860
 Iteration 42 RMS(Cart)=  0.09076289 RMS(Int)=  0.01603546
 Iteration 43 RMS(Cart)=  0.09076279 RMS(Int)=  0.01601860
 Iteration 44 RMS(Cart)=  0.09076274 RMS(Int)=  0.01603545
 Iteration 45 RMS(Cart)=  0.09076268 RMS(Int)=  0.01601859
 Iteration 46 RMS(Cart)=  0.09076266 RMS(Int)=  0.01603545
 Iteration 47 RMS(Cart)=  0.09076263 RMS(Int)=  0.01601859
 Iteration 48 RMS(Cart)=  0.09076261 RMS(Int)=  0.01603545
 Iteration 49 RMS(Cart)=  0.09076259 RMS(Int)=  0.01601859
 Iteration 50 RMS(Cart)=  0.09076259 RMS(Int)=  0.01603545
 Iteration 51 RMS(Cart)=  0.09076257 RMS(Int)=  0.01601859
 Iteration 52 RMS(Cart)=  0.09076257 RMS(Int)=  0.01603545
 Iteration 53 RMS(Cart)=  0.09076256 RMS(Int)=  0.01601859
 Iteration 54 RMS(Cart)=  0.09076256 RMS(Int)=  0.01603545
 Iteration 55 RMS(Cart)=  0.09076256 RMS(Int)=  0.01601859
 Iteration 56 RMS(Cart)=  0.09076256 RMS(Int)=  0.01603545
 Iteration 57 RMS(Cart)=  0.09076255 RMS(Int)=  0.01601859
 Iteration 58 RMS(Cart)=  0.09076255 RMS(Int)=  0.01603545
 Iteration 59 RMS(Cart)=  0.09076255 RMS(Int)=  0.01601859
 Iteration 60 RMS(Cart)=  0.09076255 RMS(Int)=  0.01603545
 Iteration 61 RMS(Cart)=  0.09076255 RMS(Int)=  0.01601859
 Iteration 62 RMS(Cart)=  0.09076255 RMS(Int)=  0.01603545
 Iteration 63 RMS(Cart)=  0.09076255 RMS(Int)=  0.01601859
 Iteration 64 RMS(Cart)=  0.09076255 RMS(Int)=  0.01603545
 Iteration 65 RMS(Cart)=  0.09076255 RMS(Int)=  0.01601859
 Iteration 66 RMS(Cart)=  0.09076255 RMS(Int)=  0.01603545
 Iteration 67 RMS(Cart)=  0.09076255 RMS(Int)=  0.01601859
 Iteration 68 RMS(Cart)=  0.09076255 RMS(Int)=  0.01603545
 Iteration 69 RMS(Cart)=  0.09076255 RMS(Int)=  0.01601859
 Iteration 70 RMS(Cart)=  0.09076255 RMS(Int)=  0.01603545
 Iteration 71 RMS(Cart)=  0.09076255 RMS(Int)=  0.01601859
 Iteration 72 RMS(Cart)=  0.09076256 RMS(Int)=  0.01603545
 Iteration 73 RMS(Cart)=  0.09076256 RMS(Int)=  0.01601859
 Iteration 74 RMS(Cart)=  0.09076256 RMS(Int)=  0.01603545
 Iteration 75 RMS(Cart)=  0.09076255 RMS(Int)=  0.01601859
 Iteration 76 RMS(Cart)=  0.09076255 RMS(Int)=  0.01603545
 Iteration 77 RMS(Cart)=  0.09076255 RMS(Int)=  0.01601859
 Iteration 78 RMS(Cart)=  0.09076255 RMS(Int)=  0.01603545
 Iteration 79 RMS(Cart)=  0.09076255 RMS(Int)=  0.01601859
 Iteration 80 RMS(Cart)=  0.09076255 RMS(Int)=  0.01603545
 Iteration 81 RMS(Cart)=  0.09076255 RMS(Int)=  0.01601859
 Iteration 82 RMS(Cart)=  0.09076255 RMS(Int)=  0.01603545
 Iteration 83 RMS(Cart)=  0.09076255 RMS(Int)=  0.01601859
 Iteration 84 RMS(Cart)=  0.09076255 RMS(Int)=  0.01603545
 Iteration 85 RMS(Cart)=  0.09076255 RMS(Int)=  0.01601859
 Iteration 86 RMS(Cart)=  0.09076255 RMS(Int)=  0.01603545
 Iteration 87 RMS(Cart)=  0.09076255 RMS(Int)=  0.01601859
 Iteration 88 RMS(Cart)=  0.09076255 RMS(Int)=  0.01603545
 Iteration 89 RMS(Cart)=  0.09076255 RMS(Int)=  0.01601859
 Iteration 90 RMS(Cart)=  0.09076255 RMS(Int)=  0.01603545
 Iteration 91 RMS(Cart)=  0.09076255 RMS(Int)=  0.01601859
 Iteration 92 RMS(Cart)=  0.09076255 RMS(Int)=  0.01603545
 Iteration 93 RMS(Cart)=  0.09076255 RMS(Int)=  0.01601859
 Iteration 94 RMS(Cart)=  0.09076255 RMS(Int)=  0.01603545
 Iteration 95 RMS(Cart)=  0.09076255 RMS(Int)=  0.01601859
 Iteration 96 RMS(Cart)=  0.09076255 RMS(Int)=  0.01603545
 Iteration 97 RMS(Cart)=  0.09076255 RMS(Int)=  0.01601859
 Iteration 98 RMS(Cart)=  0.09076255 RMS(Int)=  0.01603545
 Iteration 99 RMS(Cart)=  0.09076255 RMS(Int)=  0.01601859
 Iteration100 RMS(Cart)=  0.09076255 RMS(Int)=  0.01603545
 New curvilinear step not converged.
 ITry= 3 IFail=1 DXMaxC= 1.76D+00 DCOld= 1.00D+10 DXMaxT= 3.00D-01 DXLimC= 3.00D+00 Rises=F
 Iteration  1 RMS(Cart)=  0.23238350 RMS(Int)=  0.02416989
 Iteration  2 RMS(Cart)=  0.23967565 RMS(Int)=  0.01601610
 Iteration  3 RMS(Cart)=  0.10890606 RMS(Int)=  0.01405833
 Iteration  4 RMS(Cart)=  0.09847033 RMS(Int)=  0.01405699
 Iteration  5 RMS(Cart)=  0.09593016 RMS(Int)=  0.01394620
 Iteration  6 RMS(Cart)=  0.09357439 RMS(Int)=  0.01394782
 Iteration  7 RMS(Cart)=  0.09098266 RMS(Int)=  0.01384014
 Iteration  8 RMS(Cart)=  0.08929470 RMS(Int)=  0.01384725
 Iteration  9 RMS(Cart)=  0.08719628 RMS(Int)=  0.01376036
 Iteration 10 RMS(Cart)=  0.08590475 RMS(Int)=  0.01377205
 Iteration 11 RMS(Cart)=  0.08426075 RMS(Int)=  0.01370163
 Iteration 12 RMS(Cart)=  0.08330310 RMS(Int)=  0.01371702
 Iteration 13 RMS(Cart)=  0.08205804 RMS(Int)=  0.01365929
 Iteration 14 RMS(Cart)=  0.08136002 RMS(Int)=  0.01367749
 Iteration 15 RMS(Cart)=  0.08043818 RMS(Int)=  0.01362911
 Iteration 16 RMS(Cart)=  0.07993482 RMS(Int)=  0.01364935
 Iteration 17 RMS(Cart)=  0.07926246 RMS(Int)=  0.01360771
 Iteration 18 RMS(Cart)=  0.07890186 RMS(Int)=  0.01362942
 Iteration 19 RMS(Cart)=  0.07841626 RMS(Int)=  0.01359258
 Iteration 20 RMS(Cart)=  0.07815899 RMS(Int)=  0.01361533
 Iteration 21 RMS(Cart)=  0.07781056 RMS(Int)=  0.01358188
 Iteration 22 RMS(Cart)=  0.07762749 RMS(Int)=  0.01360536
 Iteration 23 RMS(Cart)=  0.07737854 RMS(Int)=  0.01357432
 Iteration 24 RMS(Cart)=  0.07724849 RMS(Int)=  0.01359832
 Iteration 25 RMS(Cart)=  0.07707115 RMS(Int)=  0.01356897
 Iteration 26 RMS(Cart)=  0.07697887 RMS(Int)=  0.01359335
 Iteration 27 RMS(Cart)=  0.07685277 RMS(Int)=  0.01356520
 Iteration 28 RMS(Cart)=  0.07678734 RMS(Int)=  0.01358983
 Iteration 29 RMS(Cart)=  0.07669781 RMS(Int)=  0.01356252
 Iteration 30 RMS(Cart)=  0.07665145 RMS(Int)=  0.01358734
 Iteration 31 RMS(Cart)=  0.07658794 RMS(Int)=  0.01356063
 Iteration 32 RMS(Cart)=  0.07655509 RMS(Int)=  0.01358558
 Iteration 33 RMS(Cart)=  0.07651007 RMS(Int)=  0.01355930
 Iteration 34 RMS(Cart)=  0.07648681 RMS(Int)=  0.01358433
 Iteration 35 RMS(Cart)=  0.07645491 RMS(Int)=  0.01355835
 Iteration 36 RMS(Cart)=  0.07643844 RMS(Int)=  0.01358345
 Iteration 37 RMS(Cart)=  0.07641585 RMS(Int)=  0.01355768
 Iteration 38 RMS(Cart)=  0.07640419 RMS(Int)=  0.01358283
 Iteration 39 RMS(Cart)=  0.07638818 RMS(Int)=  0.01355721
 Iteration 40 RMS(Cart)=  0.07637992 RMS(Int)=  0.01358239
 Iteration 41 RMS(Cart)=  0.07636859 RMS(Int)=  0.01355687
 Iteration 42 RMS(Cart)=  0.07636275 RMS(Int)=  0.01358208
 Iteration 43 RMS(Cart)=  0.07635472 RMS(Int)=  0.01355663
 Iteration 44 RMS(Cart)=  0.07635058 RMS(Int)=  0.01358185
 Iteration 45 RMS(Cart)=  0.07634490 RMS(Int)=  0.01355646
 Iteration 46 RMS(Cart)=  0.07634197 RMS(Int)=  0.01358170
 Iteration 47 RMS(Cart)=  0.07633794 RMS(Int)=  0.01355635
 Iteration 48 RMS(Cart)=  0.07633587 RMS(Int)=  0.01358159
 Iteration 49 RMS(Cart)=  0.07633303 RMS(Int)=  0.01355626
 Iteration 50 RMS(Cart)=  0.07633156 RMS(Int)=  0.01358151
 Iteration 51 RMS(Cart)=  0.07632954 RMS(Int)=  0.01355620
 Iteration 52 RMS(Cart)=  0.07632851 RMS(Int)=  0.01358145
 Iteration 53 RMS(Cart)=  0.07632708 RMS(Int)=  0.01355616
 Iteration 54 RMS(Cart)=  0.07632634 RMS(Int)=  0.01358141
 Iteration 55 RMS(Cart)=  0.07632533 RMS(Int)=  0.01355613
 Iteration 56 RMS(Cart)=  0.07632481 RMS(Int)=  0.01358139
 Iteration 57 RMS(Cart)=  0.07632409 RMS(Int)=  0.01355611
 Iteration 58 RMS(Cart)=  0.07632372 RMS(Int)=  0.01358137
 Iteration 59 RMS(Cart)=  0.07632322 RMS(Int)=  0.01355609
 Iteration 60 RMS(Cart)=  0.07632296 RMS(Int)=  0.01358135
 Iteration 61 RMS(Cart)=  0.07632260 RMS(Int)=  0.01355608
 Iteration 62 RMS(Cart)=  0.07632242 RMS(Int)=  0.01358134
 Iteration 63 RMS(Cart)=  0.07632216 RMS(Int)=  0.01355608
 Iteration 64 RMS(Cart)=  0.07632203 RMS(Int)=  0.01358134
 Iteration 65 RMS(Cart)=  0.07632185 RMS(Int)=  0.01355607
 Iteration 66 RMS(Cart)=  0.07632176 RMS(Int)=  0.01358133
 Iteration 67 RMS(Cart)=  0.07632163 RMS(Int)=  0.01355607
 Iteration 68 RMS(Cart)=  0.07632157 RMS(Int)=  0.01358133
 Iteration 69 RMS(Cart)=  0.07632148 RMS(Int)=  0.01355606
 Iteration 70 RMS(Cart)=  0.07632143 RMS(Int)=  0.01358132
 Iteration 71 RMS(Cart)=  0.07632137 RMS(Int)=  0.01355606
 Iteration 72 RMS(Cart)=  0.07632133 RMS(Int)=  0.01358132
 Iteration 73 RMS(Cart)=  0.07632129 RMS(Int)=  0.01355606
 Iteration 74 RMS(Cart)=  0.07632127 RMS(Int)=  0.01358132
 Iteration 75 RMS(Cart)=  0.07632123 RMS(Int)=  0.01355606
 Iteration 76 RMS(Cart)=  0.07632122 RMS(Int)=  0.01358132
 Iteration 77 RMS(Cart)=  0.07632120 RMS(Int)=  0.01355606
 Iteration 78 RMS(Cart)=  0.07632118 RMS(Int)=  0.01358132
 Iteration 79 RMS(Cart)=  0.07632117 RMS(Int)=  0.01355606
 Iteration 80 RMS(Cart)=  0.07632116 RMS(Int)=  0.01358132
 Iteration 81 RMS(Cart)=  0.07632115 RMS(Int)=  0.01355606
 Iteration 82 RMS(Cart)=  0.07632114 RMS(Int)=  0.01358132
 Iteration 83 RMS(Cart)=  0.07632113 RMS(Int)=  0.01355606
 Iteration 84 RMS(Cart)=  0.07632113 RMS(Int)=  0.01358132
 Iteration 85 RMS(Cart)=  0.07632113 RMS(Int)=  0.01355606
 Iteration 86 RMS(Cart)=  0.07632112 RMS(Int)=  0.01358132
 Iteration 87 RMS(Cart)=  0.07632112 RMS(Int)=  0.01355606
 Iteration 88 RMS(Cart)=  0.07632112 RMS(Int)=  0.01358132
 Iteration 89 RMS(Cart)=  0.07632111 RMS(Int)=  0.01355606
 Iteration 90 RMS(Cart)=  0.07632111 RMS(Int)=  0.01358132
 Iteration 91 RMS(Cart)=  0.07632111 RMS(Int)=  0.01355606
 Iteration 92 RMS(Cart)=  0.07632111 RMS(Int)=  0.01358132
 Iteration 93 RMS(Cart)=  0.07632111 RMS(Int)=  0.01355606
 Iteration 94 RMS(Cart)=  0.07632111 RMS(Int)=  0.01358132
 Iteration 95 RMS(Cart)=  0.07632111 RMS(Int)=  0.01355606
 Iteration 96 RMS(Cart)=  0.07632111 RMS(Int)=  0.01358132
 Iteration 97 RMS(Cart)=  0.07632110 RMS(Int)=  0.01355606
 Iteration 98 RMS(Cart)=  0.07632110 RMS(Int)=  0.01358132
 Iteration 99 RMS(Cart)=  0.07632110 RMS(Int)=  0.01355606
 Iteration100 RMS(Cart)=  0.07632110 RMS(Int)=  0.01358132
 New curvilinear step not converged.
 ITry= 4 IFail=1 DXMaxC= 1.57D+00 DCOld= 1.00D+10 DXMaxT= 3.00D-01 DXLimC= 3.00D+00 Rises=F
 Iteration  1 RMS(Cart)=  0.21653477 RMS(Int)=  0.02001765
[...]
 00057,-0.00000433,0.00000438,-0.00000317,0.00000071,-0.00977690,-0.011
 79507,-0.02274006,-0.00114089,-0.00152738,0.00258968,0.00004099,0.0001
 9006,-0.00008745,0.00075377,0.00155917,-0.00030578,0.00018288,-0.00033
 905,0.00056921,-0.10154418,-0.08418543,-0.12748405,0.10403543,0.089092
 37,0.13429154,-0.00021684,0.00003399,0.00016522,0.00007737,-0.00033993
 ,-0.00007748,0.00002399,0.00000545,-0.00003788,0.00020200,0.00011212,-
 0.00009482,-0.00000494,0.00000250,-0.00000756,0.00008083,0.00002023,0.
 00000618,-0.00001925,0.00000894,0.00000071,0.00000049,0.00000626,-0.00
 000075,-0.00004278,-0.00000502,-0.00000390,-0.00000605,0.00000358,-0.0
 0000156,-0.00000294,0.00000131,-0.00000162,-0.00005744,-0.00001313,0.0
 0000730,-0.00009569,0.00004619,-0.00003093,0.00001916,-0.00009352,-0.0
 0001209,0.00001201,0.00003165,0.00001113,0.00000090,-0.00001819,-0.000
 00394,-0.00000014,-0.00000367,-0.00000268,0.00000111,0.00000515,-0.000
 00231,-0.00483642,0.00259924,-0.00247109,0.00019252,-0.00008455,-0.000
 75036,0.00015073,-0.00053766,0.00045621,-0.00019169,-0.00003248,0.0000
 2216,0.00025772,-0.00008773,-0.00002326,-0.27598583,0.11237247,-0.0185
 6921,-0.01438868,0.00958831,0.00019628,0.28985873,-0.00107167,0.000511
 15,0.00046105,0.00024185,-0.00185211,-0.00142581,0.00020435,-0.0004387
 0,0.00016721,0.00041781,-0.00000800,-0.00036337,0.00006577,0.00008231,
 -0.00005107,-0.00002996,-0.00003933,-0.00001428,0.00002741,0.00001396,
 0.00000810,0.00000034,-0.00001962,-0.00000245,0.00001839,0.00001568,0.
 00000589,0.00000051,-0.00000195,0.00000022,0.00000297,0.00000071,0.000
 00050,0.00001131,0.00001503,0.00002569,0.00003526,0.00003699,0.0000061
 9,-0.00004983,-0.00005375,-0.00001071,0.00010170,0.00001998,0.00000739
 ,-0.00015575,0.00003223,-0.00000750,0.00000571,0.00000383,0.00000591,-
 0.00000108,-0.00000164,-0.00000257,-0.00119153,-0.00077112,0.00269068,
 -0.00034344,0.00016830,-0.00010997,0.00012696,-0.00000744,0.00025811,-
 0.00009802,0.00001521,-0.00005174,0.00004924,-0.00001035,-0.00011522,0
 .11367714,-0.10378586,0.00660090,-0.01697336,0.00876041,0.00048604,-0.
 12167826,0.10447314,0.00048649,-0.00011343,-0.00033917,-0.00034328,0.0
 0024992,0.00050510,0.00000976,-0.00006820,0.00010477,-0.00049942,-0.00
 021842,0.00024000,-0.00000598,-0.00002527,-0.00001586,-0.00018365,-0.0
 0009415,-0.00006827,0.00002351,-0.00005300,-0.00000500,0.00000724,0.00
 000156,0.00000053,0.00011025,0.00000660,0.00001982,0.00002299,-0.00000
 925,0.00000326,0.00000650,-0.00000355,0.00000176,0.00014847,0.00006078
 ,0.00009793,0.00029683,-0.00022508,0.00013376,0.00005015,0.00031278,0.
 00003323,-0.00010293,-0.00010958,-0.00001323,0.00007515,0.00003340,0.0
 0000059,0.00000064,0.00000616,-0.00000363,0.00000989,-0.00000557,-0.00
 000493,0.02392766,-0.01106359,0.00194181,-0.00044684,-0.00055003,0.001
 55499,-0.00017127,0.00076693,-0.00026901,-0.00002096,0.00021435,-0.000
 15599,-0.00025703,-0.00029853,0.00001093,-0.01817373,0.00834102,-0.046
 38746,-0.01510124,0.00982024,0.00048640,0.01964745,-0.00884727,0.04839
 708,-0.00246614,0.00150474,0.00080058,0.00014607,-0.00017595,-0.000939
 21,0.00011949,-0.00074325,0.00023280,0.00095567,-0.00004112,-0.0005660
 2,0.00018797,0.00013477,-0.00004409,-0.00011644,-0.00018606,-0.0000184
 3,0.00007847,0.00004201,0.00001852,-0.00000155,-0.00007036,-0.00000531
 ,0.00003726,0.00006534,0.00000953,0.00000202,-0.00000446,0.00000350,0.
 00000640,0.00000163,0.00000272,0.00004212,0.00012206,-0.00000115,0.000
 12142,0.00012659,-0.00003193,-0.00016001,-0.00011233,-0.00001257,0.000
 26804,0.00003624,-0.00000393,-0.00037518,0.00010597,-0.00000311,0.0000
 1716,0.00000742,0.00002226,-0.00000511,-0.00001262,0.00000408,-0.00230
 984,-0.00987841,0.00641520,-0.00127396,0.00036802,0.00281519,0.0001202
 0,-0.00013435,0.00012505,0.00018382,0.00050963,-0.00008820,0.00040148,
 -0.00093096,0.00028888,-0.05247492,-0.02546711,0.00407057,-0.00128596,
 -0.01838951,0.00910062,0.00524433,0.02724982,-0.01196456,0.05267208,0.
 00425177,-0.00528793,-0.00133983,-0.00085063,-0.00296077,-0.00268978,-
 0.00020811,0.00120694,-0.00010144,-0.00314242,0.00060072,0.00211216,0.
 00001480,-0.00050582,0.00009583,-0.00004100,0.00051325,0.00005534,-0.0
 0015011,-0.00014366,-0.00004559,-0.00000578,0.00019143,0.00001757,0.00
 006498,-0.00019771,-0.00000573,0.00001543,-0.00000266,0.00000066,-0.00
 000523,-0.00000778,-0.00000190,0.00014157,-0.00031277,-0.00003169,0.00
 000277,-0.00056023,-0.00006616,0.00033851,0.00071771,0.00013340,-0.000
 76468,-0.00028916,-0.00013970,0.00106614,-0.00014768,0.00014382,-0.000
 02914,0.00000926,-0.00002948,-0.00000020,0.00001730,0.00000620,-0.0003
 8015,0.00631225,0.00053081,0.00094716,-0.00012394,-0.00233548,-0.00001
 356,-0.00017709,0.00003689,0.00002782,-0.00021128,0.00011138,0.0001755
 0,0.00087735,-0.00029325,-0.02579491,-0.30383827,0.09771107,0.00080967
 ,-0.00932263,0.00477684,-0.00239282,-0.00735740,0.00241813,0.02624924,
 0.32038466,0.00274953,-0.00220177,-0.00117615,-0.00115223,-0.00064428,
 -0.00089610,-0.00060942,0.00150886,-0.00051566,-0.00184983,0.00027005,
 0.00150879,0.00001179,-0.00020206,0.00031143,0.00004686,0.00024284,0.0
 0004275,-0.00010242,-0.00007230,-0.00003436,-0.00000595,0.00010497,0.0
 0000914,-0.00000912,-0.00010122,-0.00001542,0.00000346,0.00000199,0.00
 000259,-0.00000689,-0.00000362,-0.00000069,0.00001090,-0.00014631,-0.0
 0001081,-0.00005186,-0.00026962,-0.00006072,0.00020664,0.00035809,0.00
 008827,-0.00046092,-0.00013459,-0.00010575,0.00068685,-0.00012703,0.00
 010011,-0.00002157,0.00000263,-0.00000780,0.00000046,0.00000972,0.0000
 0496,0.00404858,0.02649674,-0.01465394,0.00250942,-0.00167435,-0.00675
 132,-0.00011500,-0.00033338,0.00012494,0.00003383,-0.00041464,0.000114
 19,0.00013282,0.00226734,0.00003108,0.00559848,0.09398223,-0.07797787,
 -0.00078272,-0.01768652,0.00890733,-0.00041951,-0.00008250,-0.00015949
 ,-0.00964257,-0.10116691,0.08988700,0.00274924,-0.00080878,-0.00309663
 ,-0.00550238,-0.00055788,-0.00078952,-0.00008522,0.00040786,0.00076463
 ,-0.00140149,-0.00312689,0.00071863,-0.00003927,-0.00009664,0.00019670
 ,-0.00167547,-0.00296038,-0.00059702,0.00015347,-0.00051006,0.00008326
 ,-0.00001575,-0.00020643,-0.00003828,0.00022949,0.00071523,0.00023351,
 0.00020812,-0.00003109,0.00004407,0.00003750,0.00002116,-0.00000681,-0
 .00214475,0.00133213,-0.00055700,-0.00399934,-0.00053655,-0.00121655,0
 .00106059,0.00208903,0.00033977,-0.00040602,-0.00074472,-0.00022057,0.
 00041982,0.00000529,0.00014982,-0.00001312,0.00002310,-0.00001704,0.00
 011243,-0.00006950,0.00001739,-0.11194024,0.01975723,-0.00292219,0.001
 50015,0.00247031,-0.00118055,-0.00126121,-0.00218620,0.00000103,0.0005
 4838,-0.00221979,0.00059932,0.00020994,-0.00102482,0.00032728,-0.00927
 531,0.00240985,0.00072015,0.00177932,-0.00010797,-0.00225483,-0.000165
 14,-0.00034099,0.00048656,0.00064050,-0.00063631,-0.00112356,0.3625776
 1,0.00100803,-0.00100736,-0.00452433,-0.00379034,-0.00425571,0.0010908
 4,0.00017657,-0.00154555,0.00183627,-0.00405269,-0.01080794,0.00016467
 ,0.00001449,0.00016980,0.00007054,-0.00042058,0.00240307,0.00007046,0.
 00007857,0.00043811,0.00002678,0.00000538,-0.00011572,-0.00001153,-0.0
 0005717,-0.00031877,-0.00014177,-0.00014888,0.00003881,-0.00004183,-0.
 00000892,-0.00000801,0.00001394,0.00078884,-0.00046025,0.00064574,-0.0
 0032099,0.00077309,0.00003265,-0.00093119,-0.00263328,-0.00032035,0.00
 159977,0.00100652,0.00034523,-0.00216195,0.00008070,-0.00029436,0.0000
 2965,-0.00004328,0.00003856,-0.00012745,0.00004903,-0.00003917,-0.0067
 6984,-0.04558600,-0.00345511,0.02407871,-0.01010279,0.00529226,-0.0013
 8491,-0.00488987,0.00174510,0.00092891,0.00274934,-0.00066733,-0.00004
 087,0.00108869,-0.00009525,0.00553837,-0.00323861,-0.00197268,-0.00009
 519,0.00029500,0.00177943,0.00144653,0.00039649,-0.00047533,-0.0003935
 3,-0.00025220,-0.00004229,0.09285339,0.58607725,0.00147912,-0.00131077
 ,-0.00092956,-0.00013875,0.00194206,-0.00030941,-0.00055112,0.00022914
 ,0.00026941,-0.00068862,-0.00134020,0.00249028,0.00005492,-0.00017391,
 0.00003365,0.00003839,-0.00152906,0.00001680,-0.00004853,0.00018614,0.
 00016019,0.00000181,-0.00015590,-0.00006102,-0.00040520,0.00033653,0.0
 0001997,-0.00003118,0.00001956,-0.00000974,-0.00001547,0.00002931,-0.0
 0002062,-0.00172490,0.00079245,0.00036644,-0.00083844,0.00072461,-0.00
 110581,-0.00006327,-0.00041569,-0.00012657,0.00025385,0.00023776,0.000
 05805,-0.00022450,-0.00014811,-0.00007962,-0.00000940,-0.00000028,-0.0
 0002771,0.00001293,-0.00000284,0.00000074,-0.02819544,0.01008445,-0.05
 453125,-0.00557057,-0.00006892,-0.00154856,0.00089496,0.00117917,0.001
 10359,0.00095317,0.00020381,0.00021604,-0.00040289,-0.00059099,0.00043
 907,0.02324911,-0.00720978,0.00481291,-0.00027649,-0.00011428,0.002328
 44,0.00157712,0.00046529,-0.00601357,-0.00014481,-0.00027901,0.0005756
 2,-0.02625703,0.00779449,0.57938483,0.00114779,-0.00220446,-0.00080016
 ,0.00018597,0.00115582,0.00114138,-0.00015226,0.00054272,-0.00028459,-
 0.00082852,0.00057418,0.00044930,-0.00001834,-0.00012060,0.00004983,-0
 .00073670,-0.00017204,0.00026902,-0.00002591,-0.00006933,0.00007619,-0
 .00000145,0.00004034,0.00000059,0.00006213,-0.00004247,0.00008804,0.00
 002588,-0.00001386,0.00000870,0.00000611,-0.00000128,-0.00000860,0.000
 24351,0.00033222,-0.00060066,-0.00059071,-0.00015122,-0.00044442,-0.00
 002406,0.00093757,0.00020310,-0.00047611,-0.00036267,-0.00028167,0.000
 67614,-0.00012081,0.00020453,-0.00002206,0.00002096,-0.00000908,-0.000
 00596,-0.00000837,0.00002721,-0.01511540,0.01102774,-0.02364572,-0.003
 03609,-0.00039121,-0.00023437,0.00058987,0.00091180,-0.00012821,0.0003
 3917,0.00002134,0.00019133,-0.00008007,-0.00003168,-0.00015687,0.00365
 721,-0.00031819,-0.00107012,-0.00010703,0.00052612,0.00085441,0.000398
 64,-0.00018686,-0.00054964,-0.00082119,0.00001845,0.00038900,-0.038942
 36,0.00537394,-0.02183911,0.04820104,-0.00066093,-0.00178962,-0.000924
 83,0.00001186,-0.00064051,0.00052295,0.00005141,0.00008123,0.00005244,
 0.00013435,0.00020624,0.00101321,-0.00010605,-0.00010564,-0.00001794,-
 0.00046848,0.00168307,0.00020575,-0.00013640,-0.00013510,-0.00006085,-
 0.00000662,0.00026264,0.00003911,0.00016627,-0.00044291,0.00006343,-0.
 00000392,0.00000191,-0.00000683,0.00000342,-0.00001491,-0.00000722,0.0
 0073156,-0.00074329,-0.00062917,-0.00038727,-0.00120357,-0.00005545,0.
 00056126,0.00037545,-0.00009492,-0.00040501,-0.00018919,0.00018099,0.0
 0034245,-0.00017707,-0.00026216,-0.00003097,-0.00000535,-0.00002751,-0
 .00005124,0.00003054,0.00000581,0.00176198,-0.00461793,0.00611847,0.00
 251426,-0.00075913,0.00012446,-0.00009762,-0.00085694,0.00005775,0.000
 01057,-0.00007092,0.00010924,-0.00007086,0.00026065,-0.00022990,-0.000
 75011,0.00134003,0.00066722,0.00044853,-0.00064494,-0.00038048,-0.0003
 8996,-0.00007332,0.00010045,-0.00007793,0.00035266,-0.00017647,0.00561
 536,-0.07104272,0.09255504,-0.00976066,0.07567360,0.00026020,-0.001395
 98,-0.00003957,0.00097780,0.00093053,0.00055919,-0.00022568,0.00028105
 ,-0.00026425,0.00018437,-0.00001480,0.00059232,0.00000400,-0.00005467,
 0.00008643,0.00025818,0.00082909,0.00010206,-0.00006981,0.00005367,-0.
 00014074,-0.00003151,0.00008025,0.00001283,-0.00008384,-0.00016858,-0.
 00017559,-0.00004450,0.00002117,-0.00000666,-0.00001345,-0.00000513,0.
 00001620,0.00011839,-0.00042552,0.00016281,-0.00102335,-0.00014010,0.0
 0093687,0.00008061,-0.00046510,-0.00011417,0.00003697,0.00014357,0.000
 15151,0.00011942,-0.00012450,-0.00014638,-0.00001683,-0.00001118,0.000
 00381,-0.00004100,0.00001807,-0.00000170,0.00342048,-0.00212293,0.0013
 3955,0.00075286,-0.00029986,0.00001531,-0.00005470,-0.00042036,0.00002
 568,-0.00006532,0.00001666,-0.00011740,0.00011566,-0.00003377,0.000048
 11,0.00120802,-0.00025788,0.00073420,-0.00039831,-0.00018911,0.0005954
 9,0.00028790,0.00004017,-0.00018261,-0.00012009,0.00033237,0.00046988,
 -0.02600529,0.09383001,-0.31288757,0.02301548,-0.09780526,0.32729624,-
 0.00333425,-0.00392145,0.00398220,0.00092977,-0.00022926,-0.00100233,0
 .00038559,0.00104480,-0.00107423,-0.00143049,0.00305074,-0.00122976,0.
 00006553,0.00000074,-0.00004125,-0.00041621,-0.00210507,-0.00039609,0.
 00004709,-0.00009661,-0.00013166,0.00002037,-0.00002496,0.00001410,0.0
 0027224,0.00035632,0.00000879,0.00008218,-0.00003580,-0.00000038,0.000
 00287,0.00000174,0.00001695,-0.00050167,0.00111427,0.00031169,-0.00195
 276,0.00120538,0.00071750,-0.00045648,0.00181667,-0.00008242,-0.001276
 21,-0.00078261,-0.00007842,0.00178867,0.00094923,0.00006561,0.00004954
 ,0.00004048,0.00000962,0.00009968,-0.00002893,0.00000325,-0.01030061,0
 .02211466,0.01735413,-0.00322283,0.00063740,-0.00056359,0.00040213,0.0
 0102339,-0.00030867,-0.00025691,-0.00004929,0.00016412,0.00009174,0.00
 003145,-0.00008478,-0.00539544,0.00208680,-0.00142322,0.00001111,0.000
 07632,-0.00040109,-0.00055542,-0.00004281,0.00187540,0.00005173,0.0003
 0184,-0.00001158,-0.04534371,0.02717176,0.02501744,0.00152567,-0.00245
 178,-0.00158996,0.06295137,-0.01442792,-0.00031282,0.01440241,0.005131
 93,-0.00560796,-0.00389578,0.00195839,0.00156786,-0.00334517,0.0069737
 4,-0.00024981,-0.00671248,-0.00015471,0.00037685,-0.00033157,-0.000861
 37,0.00169902,-0.00011440,-0.00037981,-0.00062304,-0.00019587,-0.00002
 571,0.00058938,0.00004832,0.00032494,-0.00065242,-0.00005279,0.0001041
 7,-0.00003119,0.00002144,-0.00000832,-0.00003045,0.00000344,0.00056117
 ,-0.00089072,0.00018616,0.00184739,-0.00341255,0.00056553,0.00180389,0
 .00306458,0.00075950,-0.00223529,-0.00096353,-0.00059808,0.00347895,-0
 .00184028,0.00070974,-0.00022029,0.00001627,-0.00007684,0.00000296,0.0
 0004578,-0.00000152,0.00638849,-0.00199690,0.00005257,0.00030001,-0.00
 055515,-0.00028542,-0.00006630,-0.00009031,0.00009081,0.00000103,-0.00
 014017,0.00012851,0.00008458,-0.00014352,0.00005132,-0.00167070,0.0009
 6744,-0.00008564,0.00019661,-0.00020730,-0.00013955,-0.00061989,-0.000
 05155,0.00063174,-0.00001368,0.00069035,0.00022707,0.02973706,-0.21835
 854,-0.14331560,-0.00239620,0.00894176,0.00849341,-0.03965088,0.228970
 58,-0.00113463,0.00370197,0.00202267,0.00062868,-0.00135400,-0.0011506
 9,0.00073300,0.00006258,-0.00070305,0.00070003,-0.00198518,-0.00443470
 ,0.00007380,0.00028585,-0.00008318,-0.00013822,-0.00047338,-0.00009190
 ,-0.00000144,-0.00017743,0.00006761,0.00001354,0.00005702,-0.00000284,
 0.00020535,0.00009502,0.00014033,0.00006122,-0.00002919,0.00001850,0.0
 0001145,-0.00000291,-0.00000881,0.00021319,0.00013132,0.00001133,0.001
 00732,0.00010602,-0.00061735,0.00002319,0.00086697,0.00038079,-0.00036
 186,-0.00035174,-0.00053172,0.00027131,0.00020506,0.00069343,0.0000084
 2,0.00000729,0.00001708,0.00006085,-0.00002298,0.00002515,-0.00166229,
 0.00674718,0.00467087,-0.00230505,0.00090709,-0.00011037,-0.00001323,0
 .00081982,-0.00049883,-0.00007057,-0.00028933,-0.00000068,0.00007594,-
 0.00004708,0.00000548,-0.00065515,0.00027233,-0.00034014,-0.00007637,0
 .00025035,0.00012170,-0.00002108,0.00004373,0.00043598,-0.00003900,-0.
 00001242,0.00003788,0.02912243,-0.13936470,-0.15920075,0.00421707,-0.0
 2335052,-0.01696951,-0.02834102,0.14435215,0.16945475,-0.00074769,-0.0
 0085337,0.00089292,0.00040803,0.00006812,0.00008292,0.00003056,0.00035
 863,-0.00036286,0.00033099,0.00150405,-0.00015180,-0.00001324,-0.00002
 838,-0.00002867,-0.00230973,0.00766122,0.00010804,-0.00005856,-0.00040
 951,-0.00005352,0.00011628,0.00071119,0.00004843,0.00151103,-0.0018474
 2,0.00005806,0.00000757,-0.00003461,-0.00000076,0.00007608,-0.00011148
 ,0.00000894,0.00073478,-0.00405456,0.00076340,-0.00128575,-0.00206523,
 -0.00032674,0.00029702,0.00159471,0.00020050,-0.00094081,-0.00084323,-
 0.00023623,0.00095302,-0.00027133,0.00010176,-0.00005321,0.00005264,-0
 .00001414,-0.00022512,0.00000781,-0.00004599,-0.02700113,-0.01233189,0
 .00203782,0.00275280,-0.00232933,0.00095785,0.00048481,-0.00068775,0.0
 0021229,-0.00013617,0.00149069,0.00023334,-0.00022912,0.00074013,-0.00
 064453,-0.00132757,0.00051282,-0.00100426,0.00011568,0.00006496,0.0002
 6627,0.00004873,-0.00007298,0.00063562,-0.00000594,-0.00001059,-0.0000
 6345,-0.15001577,-0.14038838,0.03389290,0.00392509,0.00350254,-0.00105
 668,0.00566569,0.00383578,-0.00260689,0.16689165,0.00117515,0.00078232
 ,-0.00152854,-0.00122974,0.00038101,-0.00001257,0.00002454,-0.00035197
 ,0.00055346,-0.00102439,-0.00197946,0.00010724,0.00001474,0.00002166,0
 .00005080,0.00172164,0.00001871,0.00054700,0.00001545,0.00015370,0.000
 06085,0.00001692,0.00000042,-0.00000993,-0.00002539,-0.00011106,0.0000
 5544,-0.00005570,0.00001951,-0.00001050,0.00000312,-0.00000471,-0.0000
 1286,-0.00146778,-0.00131838,-0.00053035,0.00021633,0.00065178,-0.0003
 3902,-0.00046613,-0.00088972,-0.00014344,0.00048010,0.00032615,0.00004
 288,-0.00061917,0.00016600,-0.00001888,0.00003218,-0.00000135,0.000016
 98,-0.00001474,0.00000455,0.00000336,0.01438019,0.00480200,-0.00209472
 ,0.00057107,0.00165849,-0.00008610,0.00014707,0.00003257,0.00004151,0.
 00029227,-0.00042237,-0.00051665,0.00013820,0.00023026,0.00011600,0.00
 166775,-0.00034916,0.00117982,-0.00034163,-0.00009390,-0.00008914,0.00
 001291,-0.00007332,-0.00080382,0.00010815,-0.00017489,0.00000734,-0.14
 127201,-0.22089932,0.03987554,-0.00513130,-0.00569671,-0.00113527,-0.0
 1360454,-0.01077165,0.00854911,0.14423476,0.23388884,0.00146160,-0.000
 72484,-0.00150210,0.00033837,0.00139383,0.00096513,-0.00012623,0.00004
 240,0.00018575,-0.00095810,-0.00146993,0.00036617,-0.00003739,-0.00006
 234,0.00008339,-0.00052840,0.00281354,0.00052456,-0.00002017,-0.000119
 71,0.00005136,0.00004534,0.00021780,0.00009473,0.00040829,-0.00074270,
 0.00026849,-0.00001026,-0.00000737,-0.00000086,0.00003164,-0.00004205,
 -0.00001510,0.00122176,-0.00145062,-0.00165520,-0.00055518,-0.00072405
 ,-0.00089565,0.00005398,0.00027950,-0.00003053,-0.00013825,-0.00020583
 ,-0.00008627,0.00005113,-0.00002079,-0.00000712,-0.00000615,0.00000821
 ,0.00000638,-0.00009579,0.00000981,-0.00000450,-0.00697454,-0.00192133
 ,-0.00336623,0.00014514,0.00002105,0.00119522,-0.00005312,-0.00007170,
 -0.00016812,0.00033479,-0.00025935,0.00011032,-0.00044729,0.00008189,-
 0.00031268,0.00109535,-0.00034293,0.00004954,0.00023214,-0.00000314,0.
 00000597,0.00015436,-0.00018858,-0.00034973,-0.00028451,0.00005591,0.0
 0015012,0.03247832,0.03666907,-0.05542428,0.01886807,0.02221317,-0.002
 10234,-0.01278037,-0.01157340,0.00664096,-0.03390454,-0.04387553,0.055
 22262\\-0.00000016,0.00000168,-0.00000575,-0.00000064,0.00000043,-0.00
 000394,-0.00000142,-0.00000044,-0.00000643,-0.00000007,0.00000180,-0.0
 0000297,-0.00000183,-0.00000104,-0.00000692,0.00000050,-0.00000130,0.0
 0000267,-0.00000060,-0.00000123,-0.00000066,-0.00000043,-0.00000244,0.
 00000131,-0.00000064,-0.00000147,0.00000369,-0.00000094,-0.00000126,-0
 .00000209,-0.00000068,-0.00000269,0.00000213,0.00000058,-0.00000084,0.
 00000448,0.00004747,0.00010951,0.00008983,-0.00000057,-0.00000026,-0.0
 0000140,-0.00000010,0.00000081,-0.00000325,-0.00000068,0.00000122,-0.0
 0000397,-0.00000082,0.00000030,-0.00000465,0.00000023,-0.00000236,0.00
 000488,0.00003528,0.00018922,0.00013669,0.00000164,0.00000201,0.000003
 69,0.00000191,0.00000288,0.00000371,0.00000127,0.00000088,0.00000482,0
 .00000230,0.00000378,0.00000399,0.00000013,-0.00000077,0.00000033,-0.0
 0000042,-0.00000201,0.00000171,-0.00000010,-0.00000051,0.00000060,-0.0
 0000089,-0.00000151,-0.00000099,-0.00008141,-0.00029666,-0.00022396,-0
 .00000044,-0.00000090,0.00000031,0.00000065,0.00000228,-0.00000039,0.0
 0000088,0.00000088,0.00000254\\\@


 ON INDUCTION, OR "WHY DO YOU BELIEVE THE SUN WILL RISE TOMORROW?":

 ... THE FARMER WHO HAS FED THE CHICKEN EVERY DAY THROUGHOUT ITS
 LIFE AT LAST WRINGS ITS NECK INSTEAD, SHOWING THAT MORE REFINED VIEWS
 AS TO THE UNIFORMITY OF NATURE WOULD HAVE BEEN USEFUL TO THE CHICKEN.

                               -- BERTRAND RUSSELL
 Job cpu time:       0 days  0 hours 40 minutes  4.7 seconds.
 File lengths (MBytes):  RWF=    295 Int=      0 D2E=      0 Chk=      7 Scr=      1
 Normal termination of Gaussian 09 at Wed Mar 24 03:49:32 2021.
