 Entering Gaussian System, Link 0=g09
 Initial command:
 /opt/software/gaussian/g09.e01/l1.exe "/localscratch/enas93.64620101.0/Gau-16005.inp" -scrdir="/localscratch/enas93.64620101.0/"
 Entering Link 1 = /opt/software/gaussian/g09.e01/l1.exe PID=     16006.
  
 Copyright (c) 1988,1990,1992,1993,1995,1998,2003,2009,2015,
            Gaussian, Inc.  All Rights Reserved.
  
 This is part of the Gaussian(R) 09 program.  It is based on
 the Gaussian(R) 03 system (copyright 2003, Gaussian, Inc.),
 the Gaussian(R) 98 system (copyright 1998, Gaussian, Inc.),
 the Gaussian(R) 94 system (copyright 1995, Gaussian, Inc.),
 the Gaussian 92(TM) system (copyright 1992, Gaussian, Inc.),
 the Gaussian 90(TM) system (copyright 1990, Gaussian, Inc.),
 the Gaussian 88(TM) system (copyright 1988, Gaussian, Inc.),
 the Gaussian 86(TM) system (copyright 1986, Carnegie Mellon
 University), and the Gaussian 82(TM) system (copyright 1983,
 Carnegie Mellon University). Gaussian is a federally registered
 trademark of Gaussian, Inc.
  
 This software contains proprietary and confidential information,
 including trade secrets, belonging to Gaussian, Inc.
  
 This software is provided under written license and may be
 used, copied, transmitted, or stored only in accord with that
 written license.
  
 The following legend is applicable only to US Government
 contracts under FAR:
  
                    RESTRICTED RIGHTS LEGEND
  
 Use, reproduction and disclosure by the US Government is
 subject to restrictions as set forth in subparagraphs (a)
 and (c) of the Commercial Computer Software - Restricted
 Rights clause in FAR 52.227-19.
  
 Gaussian, Inc.
 340 Quinnipiac St., Bldg. 40, Wallingford CT 06492
  
  
 ---------------------------------------------------------------
 Warning -- This program may not be used in any manner that
 competes with the business of Gaussian, Inc. or will provide
 assistance to any competitor of Gaussian, Inc.  The licensee
 of this program is prohibited from giving any competitor of
 Gaussian, Inc. access to this program.  By using this program,
 the user acknowledges that Gaussian, Inc. is engaged in the
 business of creating and licensing software in the field of
 computational chemistry and represents and warrants to the
 licensee that it is not a competitor of Gaussian, Inc. and that
 it will not use this program in any manner prohibited above.
 ---------------------------------------------------------------
  

 Cite this work as:
 Gaussian 09, Revision E.01,
 M. J. Frisch, G. W. Trucks, H. B. Schlegel, G. E. Scuseria, 
 M. A. Robb, J. R. Cheeseman, G. Scalmani, V. Barone, B. Mennucci, 
 G. A. Petersson, H. Nakatsuji, M. Caricato, X. Li, H. P. Hratchian, 
 A. F. Izmaylov, J. Bloino, G. Zheng, J. L. Sonnenberg, M. Hada, 
 M. Ehara, K. Toyota, R. Fukuda, J. Hasegawa, M. Ishida, T. Nakajima, 
 Y. Honda, O. Kitao, H. Nakai, T. Vreven, J. A. Montgomery, Jr., 
 J. E. Peralta, F. Ogliaro, M. Bearpark, J. J. Heyd, E. Brothers, 
 K. N. Kudin, V. N. Staroverov, T. Keith, R. Kobayashi, J. Normand, 
 K. Raghavachari, A. Rendell, J. C. Burant, S. S. Iyengar, J. Tomasi, 
 M. Cossi, N. Rega, J. M. Millam, M. Klene, J. E. Knox, J. B. Cross, 
 V. Bakken, C. Adamo, J. Jaramillo, R. Gomperts, R. E. Stratmann, 
 O. Yazyev, A. J. Austin, R. Cammi, C. Pomelli, J. W. Ochterski, 
 R. L. Martin, K. Morokuma, V. G. Zakrzewski, G. A. Voth, 
 P. Salvador, J. J. Dannenberg, S. Dapprich, A. D. Daniels, 
 O. Farkas, J. B. Foresman, J. V. Ortiz, J. Cioslowski, 
 and D. J. Fox, Gaussian, Inc., Wallingford CT, 2013.
 
 ******************************************
 Gaussian 09:  EM64L-G09RevE.01 30-Nov-2015
                25-Mar-2021 
 ******************************************
 %nprocshared=16
 Will use up to   16 processors via shared memory.
 %mem=10GB
 ---------------------------------------------------------
 # opt=tight freq 6-31g(d) nosymm integral=ultrafine m062x
 ---------------------------------------------------------
 1/7=10,14=-1,18=20,19=15,26=4,38=1/1,3;
 2/9=110,12=2,15=1,17=6,18=5,40=1/2;
 3/5=1,6=6,7=1,11=2,16=1,25=1,30=1,71=1,74=-55,75=-5/1,2,3;
 4//1;
 5/5=2,38=5/2;
 6/7=2,8=2,9=2,10=2,28=1/1;
 7/30=1/1,2,3,16;
 1/7=10,14=-1,18=20,19=15,26=4/3(2);
 2/9=110,15=1/2;
 99//99;
 2/9=110,15=1/2;
 3/5=1,6=6,7=1,11=2,16=1,25=1,30=1,71=1,74=-55,75=-5/1,2,3;
 4/5=5,16=3,69=1/1;
 5/5=2,38=5/2;
 7/30=1/1,2,3,16;
 1/7=10,14=-1,18=20,19=15,26=4/3(-5);
 2/9=110,15=1/2;
 6/7=2,8=2,9=2,10=2,19=2,28=1/1;
 99/9=1/99;
 -------------------
 Title Card Required
 -------------------
 Symbolic Z-matrix:
 Charge =  0 Multiplicity = 1
 C                     0.11939   3.88576   1.61784 
 C                    -1.4788    4.78313  -0.4936 
 C                    -1.16379   5.62467   0.51231 
 N                    -0.37934   5.19819   1.53922 
 H                    -2.09774   5.0929   -1.3249 
 H                    -1.50519   6.6529    0.55862 
 O                     0.78602   3.59316   2.61485 
 N                    -0.17401   3.04157   0.60518 
 C                    -0.93776   3.44108  -0.41773 
 N                    -1.19393   2.58373  -1.39634 
 H                    -0.90683   1.58989  -1.39425 
 H                    -1.86447   2.76915  -2.13178 
 H                    -0.13979   5.8018    2.31331 
 S                     1.43513  -1.22526  -0.2762 
 C                     1.94629  -1.13125  -2.00427 
 H                     1.06126  -0.74699  -2.52003 
 H                     2.80198  -0.4581   -2.08936 
 H                     2.20389  -2.13722  -2.34007 
 C                     1.03456   0.4954    0.13254 
 H                     1.52518   0.72498   1.08207 
 H                     1.36959   1.14054  -0.67994 
 H                    -0.04458   0.54597   0.21274 
 C                     3.03216  -1.39552   0.55529 
 H                     2.85373  -1.31945   1.63301 
 H                     3.44569  -2.37419   0.30621 
 H                     3.69962  -0.59691   0.2242 
 C                    -2.28422  -1.62699  -3.02576 
 H                    -3.18397  -1.8499   -2.43621 
 C                    -1.24095  -2.71103  -2.79372 
 C                    -1.81329  -0.21887  -2.62127 
 H                    -0.35363  -2.51316  -3.41421 
 H                    -0.9067   -2.66568  -1.75018 
 C                    -1.73737  -4.12722  -3.11698 
 O                    -2.45054   0.74698  -3.05608 
 O                    -0.80182  -0.15839  -1.83265 
 H                    -2.63212  -4.31953  -2.50577 
 C                    -0.66249  -5.10258  -2.67089 
 O                    -0.04612  -5.81506  -3.42561 
 N                    -2.0924   -4.25232  -4.51921 
 H                    -1.2439   -4.12555  -5.07102 
 H                    -2.38162  -5.21139  -4.70485 
 H                    -2.60356  -1.60664  -4.07006 
 H                    -0.43671  -5.10091  -1.58067 
 N                     2.09676   0.95851   3.12818 
 H                     3.02833   0.947     3.53653 
 C                     1.1349    0.38661   4.04744 
 H                     1.1028    0.8991    5.02702 
 C                    -0.26627   0.45343   3.42302 
 C                     1.49429  -1.06997   4.32101 
 H                    -0.33297  -0.22476   2.56731 
 H                    -1.04963   0.183     4.138 
 H                    -0.44666   1.47284   3.07129 
 O                     2.35354  -1.68665   3.74708 
 O                     0.75157  -1.67559   5.26895 
 H                     1.82577   1.93001   2.94032 
 H                     0.11264  -1.04962   5.64357 
 
 Add virtual bond connecting atoms O35        and H11        Dist= 3.41D+00.
 Add virtual bond connecting atoms H55        and O7         Dist= 3.76D+00.
 Add virtual bond connecting atoms H11        and H22        Dist= 3.97D+00.
 Add virtual bond connecting atoms O35        and H16        Dist= 3.91D+00.
 Add virtual bond connecting atoms N44        and H20        Dist= 4.04D+00.
 Add virtual bond connecting atoms O53        and H24        Dist= 4.16D+00.

 GradGradGradGradGradGradGradGradGradGradGradGradGradGradGradGradGradGrad
 Berny optimization.
 Initialization pass.
                           ----------------------------
                           !    Initial Parameters    !
                           ! (Angstroms and Degrees)  !
 --------------------------                            --------------------------
 ! Name  Definition              Value          Derivative Info.                !
 --------------------------------------------------------------------------------
 ! R1    R(1,4)                  1.4062         estimate D2E/DX2                !
 ! R2    R(1,7)                  1.2345         estimate D2E/DX2                !
 ! R3    R(1,8)                  1.3506         estimate D2E/DX2                !
 ! R4    R(2,3)                  1.3488         estimate D2E/DX2                !
 ! R5    R(2,5)                  1.0817         estimate D2E/DX2                !
 ! R6    R(2,9)                  1.449          estimate D2E/DX2                !
 ! R7    R(3,4)                  1.3608         estimate D2E/DX2                !
 ! R8    R(3,6)                  1.0844         estimate D2E/DX2                !
 ! R9    R(4,13)                 1.0104         estimate D2E/DX2                !
 ! R10   R(7,55)                 1.9882         estimate D2E/DX2                !
 ! R11   R(8,9)                  1.3376         estimate D2E/DX2                !
 ! R12   R(9,10)                 1.326          estimate D2E/DX2                !
 ! R13   R(10,11)                1.0345         estimate D2E/DX2                !
 ! R14   R(10,12)                1.0124         estimate D2E/DX2                !
 ! R15   R(11,22)                2.1014         estimate D2E/DX2                !
 ! R16   R(11,35)                1.8055         estimate D2E/DX2                !
 ! R17   R(14,15)                1.8045         estimate D2E/DX2                !
 ! R18   R(14,19)                1.8133         estimate D2E/DX2                !
 ! R19   R(14,23)                1.8086         estimate D2E/DX2                !
 ! R20   R(15,16)                1.094          estimate D2E/DX2                !
 ! R21   R(15,17)                1.0921         estimate D2E/DX2                !
 ! R22   R(15,18)                1.0914         estimate D2E/DX2                !
 ! R23   R(16,35)                2.0712         estimate D2E/DX2                !
 ! R24   R(19,20)                1.0932         estimate D2E/DX2                !
 ! R25   R(19,21)                1.0902         estimate D2E/DX2                !
 ! R26   R(19,22)                1.0833         estimate D2E/DX2                !
 ! R27   R(20,44)                2.1372         estimate D2E/DX2                !
 ! R28   R(23,24)                1.095          estimate D2E/DX2                !
 ! R29   R(23,25)                1.0913         estimate D2E/DX2                !
 ! R30   R(23,26)                1.0922         estimate D2E/DX2                !
 ! R31   R(24,53)                2.2032         estimate D2E/DX2                !
 ! R32   R(27,28)                1.0985         estimate D2E/DX2                !
 ! R33   R(27,29)                1.5223         estimate D2E/DX2                !
 ! R34   R(27,30)                1.5389         estimate D2E/DX2                !
 ! R35   R(27,42)                1.0922         estimate D2E/DX2                !
 ! R36   R(29,31)                1.1007         estimate D2E/DX2                !
 ! R37   R(29,32)                1.0967         estimate D2E/DX2                !
 ! R38   R(29,33)                1.5351         estimate D2E/DX2                !
 ! R39   R(30,34)                1.2361         estimate D2E/DX2                !
 ! R40   R(30,35)                1.284          estimate D2E/DX2                !
 ! R41   R(33,36)                1.1005         estimate D2E/DX2                !
 ! R42   R(33,37)                1.5185         estimate D2E/DX2                !
 ! R43   R(33,39)                1.4519         estimate D2E/DX2                !
 ! R44   R(37,38)                1.2071         estimate D2E/DX2                !
 ! R45   R(37,43)                1.1134         estimate D2E/DX2                !
 ! R46   R(39,40)                1.0201         estimate D2E/DX2                !
 ! R47   R(39,41)                1.0188         estimate D2E/DX2                !
 ! R48   R(44,45)                1.0172         estimate D2E/DX2                !
 ! R49   R(44,46)                1.4482         estimate D2E/DX2                !
 ! R50   R(44,55)                1.0259         estimate D2E/DX2                !
 ! R51   R(46,47)                1.106          estimate D2E/DX2                !
 ! R52   R(46,48)                1.5355         estimate D2E/DX2                !
 ! R53   R(46,49)                1.525          estimate D2E/DX2                !
 ! R54   R(48,50)                1.0939         estimate D2E/DX2                !
 ! R55   R(48,51)                1.0945         estimate D2E/DX2                !
 ! R56   R(48,52)                1.0934         estimate D2E/DX2                !
 ! R57   R(49,53)                1.2033         estimate D2E/DX2                !
 ! R58   R(49,54)                1.348          estimate D2E/DX2                !
 ! R59   R(54,56)                0.9697         estimate D2E/DX2                !
 ! A1    A(4,1,7)              117.2506         estimate D2E/DX2                !
 ! A2    A(4,1,8)              117.6708         estimate D2E/DX2                !
 ! A3    A(7,1,8)              125.0769         estimate D2E/DX2                !
 ! A4    A(3,2,5)              121.8772         estimate D2E/DX2                !
 ! A5    A(3,2,9)              116.8474         estimate D2E/DX2                !
 ! A6    A(5,2,9)              121.2728         estimate D2E/DX2                !
 ! A7    A(2,3,4)              120.1246         estimate D2E/DX2                !
 ! A8    A(2,3,6)              123.3608         estimate D2E/DX2                !
 ! A9    A(4,3,6)              116.5146         estimate D2E/DX2                !
 ! A10   A(1,4,3)              122.6257         estimate D2E/DX2                !
 ! A11   A(1,4,13)             115.5077         estimate D2E/DX2                !
 ! A12   A(3,4,13)             121.842          estimate D2E/DX2                !
 ! A13   A(1,7,55)             127.7964         estimate D2E/DX2                !
 ! A14   A(1,8,9)              120.7111         estimate D2E/DX2                !
 ! A15   A(2,9,8)              121.9961         estimate D2E/DX2                !
 ! A16   A(2,9,10)             119.2131         estimate D2E/DX2                !
 ! A17   A(8,9,10)             118.7873         estimate D2E/DX2                !
 ! A18   A(9,10,11)            124.4748         estimate D2E/DX2                !
 ! A19   A(9,10,12)            123.0702         estimate D2E/DX2                !
 ! A20   A(11,10,12)           111.1775         estimate D2E/DX2                !
 ! A21   A(10,11,22)           126.3486         estimate D2E/DX2                !
 ! A22   A(10,11,35)           161.0734         estimate D2E/DX2                !
 ! A23   A(22,11,35)            71.3841         estimate D2E/DX2                !
 ! A24   A(15,14,19)           103.238          estimate D2E/DX2                !
 ! A25   A(15,14,23)           101.2473         estimate D2E/DX2                !
 ! A26   A(19,14,23)           100.4148         estimate D2E/DX2                !
 ! A27   A(14,15,16)           103.9226         estimate D2E/DX2                !
 ! A28   A(14,15,17)           109.1888         estimate D2E/DX2                !
 ! A29   A(14,15,18)           108.27           estimate D2E/DX2                !
 ! A30   A(16,15,17)           112.3724         estimate D2E/DX2                !
 ! A31   A(16,15,18)           111.6924         estimate D2E/DX2                !
 ! A32   A(17,15,18)           111.0541         estimate D2E/DX2                !
 ! A33   A(15,16,35)           132.1445         estimate D2E/DX2                !
 ! A34   A(14,19,20)           107.2127         estimate D2E/DX2                !
 ! A35   A(14,19,21)           109.0044         estimate D2E/DX2                !
 ! A36   A(14,19,22)           106.3227         estimate D2E/DX2                !
 ! A37   A(20,19,21)           112.6513         estimate D2E/DX2                !
 ! A38   A(20,19,22)           111.899          estimate D2E/DX2                !
 ! A39   A(21,19,22)           109.4924         estimate D2E/DX2                !
 ! A40   A(11,22,19)           112.0448         estimate D2E/DX2                !
 ! A41   A(14,23,24)           107.5807         estimate D2E/DX2                !
 ! A42   A(14,23,25)           108.3077         estimate D2E/DX2                !
 ! A43   A(14,23,26)           109.3556         estimate D2E/DX2                !
 ! A44   A(24,23,25)           110.407          estimate D2E/DX2                !
 ! A45   A(24,23,26)           110.3121         estimate D2E/DX2                !
 ! A46   A(25,23,26)           110.7929         estimate D2E/DX2                !
 ! A47   A(28,27,29)           109.5733         estimate D2E/DX2                !
 ! A48   A(28,27,30)           107.1729         estimate D2E/DX2                !
 ! A49   A(28,27,42)           106.1067         estimate D2E/DX2                !
 ! A50   A(29,27,30)           113.6911         estimate D2E/DX2                !
 ! A51   A(29,27,42)           111.0619         estimate D2E/DX2                !
 ! A52   A(30,27,42)           108.8887         estimate D2E/DX2                !
 ! A53   A(27,29,31)           109.788          estimate D2E/DX2                !
 ! A54   A(27,29,32)           108.9326         estimate D2E/DX2                !
 ! A55   A(27,29,33)           113.7803         estimate D2E/DX2                !
 ! A56   A(31,29,32)           106.4558         estimate D2E/DX2                !
 ! A57   A(31,29,33)           107.9283         estimate D2E/DX2                !
 ! A58   A(32,29,33)           109.6992         estimate D2E/DX2                !
 ! A59   A(27,30,34)           117.6935         estimate D2E/DX2                !
 ! A60   A(27,30,35)           116.4621         estimate D2E/DX2                !
 ! A61   A(34,30,35)           125.8267         estimate D2E/DX2                !
 ! A62   A(29,33,36)           107.8887         estimate D2E/DX2                !
 ! A63   A(29,33,37)           107.5664         estimate D2E/DX2                !
 ! A64   A(29,33,39)           111.2198         estimate D2E/DX2                !
 ! A65   A(36,33,37)           107.4649         estimate D2E/DX2                !
 ! A66   A(36,33,39)           108.8155         estimate D2E/DX2                !
 ! A67   A(37,33,39)           113.6711         estimate D2E/DX2                !
 ! A68   A(11,35,16)           114.0841         estimate D2E/DX2                !
 ! A69   A(11,35,30)            98.5652         estimate D2E/DX2                !
 ! A70   A(16,35,30)           119.4301         estimate D2E/DX2                !
 ! A71   A(33,37,38)           123.8418         estimate D2E/DX2                !
 ! A72   A(33,37,43)           115.4839         estimate D2E/DX2                !
 ! A73   A(38,37,43)           120.6355         estimate D2E/DX2                !
 ! A74   A(33,39,40)           107.9598         estimate D2E/DX2                !
 ! A75   A(33,39,41)           109.0574         estimate D2E/DX2                !
 ! A76   A(40,39,41)           104.7479         estimate D2E/DX2                !
 ! A77   A(20,44,45)           128.9035         estimate D2E/DX2                !
 ! A78   A(20,44,46)           112.7627         estimate D2E/DX2                !
 ! A79   A(20,44,55)            81.8087         estimate D2E/DX2                !
 ! A80   A(45,44,46)           110.4245         estimate D2E/DX2                !
 ! A81   A(45,44,55)           109.0341         estimate D2E/DX2                !
 ! A82   A(46,44,55)           108.3462         estimate D2E/DX2                !
 ! A83   A(44,46,47)           113.4838         estimate D2E/DX2                !
 ! A84   A(44,46,48)           109.3155         estimate D2E/DX2                !
 ! A85   A(44,46,49)           109.5447         estimate D2E/DX2                !
 ! A86   A(47,46,48)           108.2716         estimate D2E/DX2                !
 ! A87   A(47,46,49)           106.8899         estimate D2E/DX2                !
 ! A88   A(48,46,49)           109.2427         estimate D2E/DX2                !
 ! A89   A(46,48,50)           110.29           estimate D2E/DX2                !
 ! A90   A(46,48,51)           112.1306         estimate D2E/DX2                !
 ! A91   A(46,48,52)           108.7812         estimate D2E/DX2                !
 ! A92   A(50,48,51)           108.3106         estimate D2E/DX2                !
 ! A93   A(50,48,52)           108.4407         estimate D2E/DX2                !
 ! A94   A(51,48,52)           108.81           estimate D2E/DX2                !
 ! A95   A(46,49,53)           124.9034         estimate D2E/DX2                !
 ! A96   A(46,49,54)           115.1782         estimate D2E/DX2                !
 ! A97   A(53,49,54)           119.9084         estimate D2E/DX2                !
 ! A98   A(24,53,49)           122.2996         estimate D2E/DX2                !
 ! A99   A(49,54,56)           110.1626         estimate D2E/DX2                !
 ! A100  A(7,55,44)            163.7847         estimate D2E/DX2                !
 ! A101  L(19,20,44,1,-1)      180.2627         estimate D2E/DX2                !
 ! A102  L(23,24,53,1,-1)      190.2906         estimate D2E/DX2                !
 ! A103  L(19,20,44,1,-2)      166.9161         estimate D2E/DX2                !
 ! A104  L(23,24,53,1,-2)      170.3012         estimate D2E/DX2                !
 ! D1    D(7,1,4,3)           -177.7287         estimate D2E/DX2                !
 ! D2    D(7,1,4,13)             0.4944         estimate D2E/DX2                !
 ! D3    D(8,1,4,3)              1.8223         estimate D2E/DX2                !
 ! D4    D(8,1,4,13)          -179.9546         estimate D2E/DX2                !
 ! D5    D(4,1,7,55)          -171.4725         estimate D2E/DX2                !
 ! D6    D(8,1,7,55)             9.0134         estimate D2E/DX2                !
 ! D7    D(4,1,8,9)             -1.4412         estimate D2E/DX2                !
 ! D8    D(7,1,8,9)            178.071          estimate D2E/DX2                !
 ! D9    D(5,2,3,4)           -179.8318         estimate D2E/DX2                !
 ! D10   D(5,2,3,6)              0.1513         estimate D2E/DX2                !
 ! D11   D(9,2,3,4)             -0.4064         estimate D2E/DX2                !
 ! D12   D(9,2,3,6)            179.5767         estimate D2E/DX2                !
 ! D13   D(3,2,9,8)              0.7608         estimate D2E/DX2                !
 ! D14   D(3,2,9,10)          -178.5518         estimate D2E/DX2                !
 ! D15   D(5,2,9,8)           -179.81           estimate D2E/DX2                !
 ! D16   D(5,2,9,10)             0.8773         estimate D2E/DX2                !
 ! D17   D(2,3,4,1)             -0.8704         estimate D2E/DX2                !
 ! D18   D(2,3,4,13)          -178.9825         estimate D2E/DX2                !
 ! D19   D(6,3,4,1)            179.1454         estimate D2E/DX2                !
 ! D20   D(6,3,4,13)             1.0332         estimate D2E/DX2                !
 ! D21   D(1,7,55,44)          -70.5392         estimate D2E/DX2                !
 ! D22   D(1,8,9,2)              0.2075         estimate D2E/DX2                !
 ! D23   D(1,8,9,10)           179.5229         estimate D2E/DX2                !
 ! D24   D(2,9,10,11)         -175.4747         estimate D2E/DX2                !
 ! D25   D(2,9,10,12)           -9.5362         estimate D2E/DX2                !
 ! D26   D(8,9,10,11)            5.1905         estimate D2E/DX2                !
 ! D27   D(8,9,10,12)          171.129          estimate D2E/DX2                !
 ! D28   D(9,10,11,22)           7.7253         estimate D2E/DX2                !
 ! D29   D(9,10,11,35)         165.2663         estimate D2E/DX2                !
 ! D30   D(12,10,11,22)       -159.6626         estimate D2E/DX2                !
 ! D31   D(12,10,11,35)         -2.1215         estimate D2E/DX2                !
 ! D32   D(10,11,22,19)        -97.5984         estimate D2E/DX2                !
 ! D33   D(35,11,22,19)         89.9146         estimate D2E/DX2                !
 ! D34   D(10,11,35,16)        117.3338         estimate D2E/DX2                !
 ! D35   D(10,11,35,30)        -10.3721         estimate D2E/DX2                !
 ! D36   D(22,11,35,16)        -81.6122         estimate D2E/DX2                !
 ! D37   D(22,11,35,30)        150.6819         estimate D2E/DX2                !
 ! D38   D(19,14,15,16)        -60.809          estimate D2E/DX2                !
 ! D39   D(19,14,15,17)         59.2894         estimate D2E/DX2                !
 ! D40   D(19,14,15,18)       -179.6818         estimate D2E/DX2                !
 ! D41   D(23,14,15,16)       -164.467          estimate D2E/DX2                !
 ! D42   D(23,14,15,17)        -44.3686         estimate D2E/DX2                !
 ! D43   D(23,14,15,18)         76.6602         estimate D2E/DX2                !
 ! D44   D(15,14,19,20)       -132.3144         estimate D2E/DX2                !
 ! D45   D(15,14,19,21)        -10.0981         estimate D2E/DX2                !
 ! D46   D(15,14,19,22)        107.8455         estimate D2E/DX2                !
 ! D47   D(23,14,19,20)        -28.0166         estimate D2E/DX2                !
 ! D48   D(23,14,19,21)         94.1998         estimate D2E/DX2                !
 ! D49   D(23,14,19,22)       -147.8567         estimate D2E/DX2                !
 ! D50   D(15,14,23,24)        172.0992         estimate D2E/DX2                !
 ! D51   D(15,14,23,25)        -68.5532         estimate D2E/DX2                !
 ! D52   D(15,14,23,26)         52.2804         estimate D2E/DX2                !
 ! D53   D(19,14,23,24)         66.2002         estimate D2E/DX2                !
 ! D54   D(19,14,23,25)       -174.4522         estimate D2E/DX2                !
 ! D55   D(19,14,23,26)        -53.6186         estimate D2E/DX2                !
 ! D56   D(14,15,16,35)          1.9621         estimate D2E/DX2                !
 ! D57   D(17,15,16,35)       -115.9573         estimate D2E/DX2                !
 ! D58   D(18,15,16,35)        118.463          estimate D2E/DX2                !
 ! D59   D(15,16,35,11)         89.9036         estimate D2E/DX2                !
 ! D60   D(15,16,35,30)       -154.0256         estimate D2E/DX2                !
 ! D61   D(14,19,44,45)         64.2816         estimate D2E/DX2                !
 ! D62   D(14,19,44,46)        -79.1784         estimate D2E/DX2                !
 ! D63   D(14,19,44,55)        173.7571         estimate D2E/DX2                !
 ! D64   D(21,19,44,45)        -59.8565         estimate D2E/DX2                !
 ! D65   D(21,19,44,46)        156.6834         estimate D2E/DX2                !
 ! D66   D(21,19,44,55)         49.6189         estimate D2E/DX2                !
 ! D67   D(22,19,44,45)        176.4182         estimate D2E/DX2                !
 ! D68   D(22,19,44,46)         32.9581         estimate D2E/DX2                !
 ! D69   D(22,19,44,55)        -74.1064         estimate D2E/DX2                !
 ! D70   D(14,19,22,11)       -108.6307         estimate D2E/DX2                !
 ! D71   D(20,19,22,11)        134.6226         estimate D2E/DX2                !
 ! D72   D(21,19,22,11)          8.9893         estimate D2E/DX2                !
 ! D73   D(14,23,53,49)        -39.1384         estimate D2E/DX2                !
 ! D74   D(25,23,53,49)       -152.6731         estimate D2E/DX2                !
 ! D75   D(26,23,53,49)         84.4275         estimate D2E/DX2                !
 ! D76   D(28,27,29,31)        177.7064         estimate D2E/DX2                !
 ! D77   D(28,27,29,32)        -66.0824         estimate D2E/DX2                !
 ! D78   D(28,27,29,33)         56.64           estimate D2E/DX2                !
 ! D79   D(30,27,29,31)        -62.4114         estimate D2E/DX2                !
 ! D80   D(30,27,29,32)         53.7998         estimate D2E/DX2                !
 ! D81   D(30,27,29,33)        176.5221         estimate D2E/DX2                !
 ! D82   D(42,27,29,31)         60.8055         estimate D2E/DX2                !
 ! D83   D(42,27,29,32)        177.0167         estimate D2E/DX2                !
 ! D84   D(42,27,29,33)        -60.2609         estimate D2E/DX2                !
 ! D85   D(28,27,30,34)        -75.4779         estimate D2E/DX2                !
 ! D86   D(28,27,30,35)        103.0804         estimate D2E/DX2                !
 ! D87   D(29,27,30,34)        163.2894         estimate D2E/DX2                !
 ! D88   D(29,27,30,35)        -18.1523         estimate D2E/DX2                !
 ! D89   D(42,27,30,34)         38.8928         estimate D2E/DX2                !
 ! D90   D(42,27,30,35)       -142.549          estimate D2E/DX2                !
 ! D91   D(27,29,33,36)        -57.1835         estimate D2E/DX2                !
 ! D92   D(27,29,33,37)       -172.84           estimate D2E/DX2                !
 ! D93   D(27,29,33,39)         62.0835         estimate D2E/DX2                !
 ! D94   D(31,29,33,36)       -179.2832         estimate D2E/DX2                !
 ! D95   D(31,29,33,37)         65.0604         estimate D2E/DX2                !
 ! D96   D(31,29,33,39)        -60.0161         estimate D2E/DX2                !
 ! D97   D(32,29,33,36)         65.1173         estimate D2E/DX2                !
 ! D98   D(32,29,33,37)        -50.5391         estimate D2E/DX2                !
 ! D99   D(32,29,33,39)       -175.6157         estimate D2E/DX2                !
 ! D100  D(27,30,35,11)       -167.9374         estimate D2E/DX2                !
 ! D101  D(27,30,35,16)         68.0901         estimate D2E/DX2                !
 ! D102  D(34,30,35,11)         10.4881         estimate D2E/DX2                !
 ! D103  D(34,30,35,16)       -113.4844         estimate D2E/DX2                !
 ! D104  D(29,33,37,38)       -115.6664         estimate D2E/DX2                !
 ! D105  D(29,33,37,43)         62.076          estimate D2E/DX2                !
 ! D106  D(36,33,37,38)        128.3977         estimate D2E/DX2                !
 ! D107  D(36,33,37,43)        -53.8599         estimate D2E/DX2                !
 ! D108  D(39,33,37,38)          7.9275         estimate D2E/DX2                !
 ! D109  D(39,33,37,43)       -174.3301         estimate D2E/DX2                !
 ! D110  D(29,33,39,40)         64.5311         estimate D2E/DX2                !
 ! D111  D(29,33,39,41)        177.8032         estimate D2E/DX2                !
 ! D112  D(36,33,39,40)       -176.7568         estimate D2E/DX2                !
 ! D113  D(36,33,39,41)        -63.4847         estimate D2E/DX2                !
 ! D114  D(37,33,39,40)        -57.0504         estimate D2E/DX2                !
 ! D115  D(37,33,39,41)         56.2218         estimate D2E/DX2                !
 ! D116  D(20,44,46,47)       -150.5715         estimate D2E/DX2                !
 ! D117  D(20,44,46,48)        -29.6069         estimate D2E/DX2                !
 ! D118  D(20,44,46,49)         90.0633         estimate D2E/DX2                !
 ! D119  D(45,44,46,47)         57.423          estimate D2E/DX2                !
 ! D120  D(45,44,46,48)        178.3876         estimate D2E/DX2                !
 ! D121  D(45,44,46,49)        -61.9422         estimate D2E/DX2                !
 ! D122  D(55,44,46,47)        -61.9262         estimate D2E/DX2                !
 ! D123  D(55,44,46,48)         59.0383         estimate D2E/DX2                !
 ! D124  D(55,44,46,49)        178.7085         estimate D2E/DX2                !
 ! D125  D(20,44,55,7)          75.6809         estimate D2E/DX2                !
 ! D126  D(45,44,55,7)        -155.8919         estimate D2E/DX2                !
 ! D127  D(46,44,55,7)         -35.6714         estimate D2E/DX2                !
 ! D128  D(44,46,48,50)         68.3954         estimate D2E/DX2                !
 ! D129  D(44,46,48,51)       -170.811          estimate D2E/DX2                !
 ! D130  D(44,46,48,52)        -50.4168         estimate D2E/DX2                !
 ! D131  D(47,46,48,50)       -167.521          estimate D2E/DX2                !
 ! D132  D(47,46,48,51)        -46.7275         estimate D2E/DX2                !
 ! D133  D(47,46,48,52)         73.6668         estimate D2E/DX2                !
 ! D134  D(49,46,48,50)        -51.4607         estimate D2E/DX2                !
 ! D135  D(49,46,48,51)         69.3329         estimate D2E/DX2                !
 ! D136  D(49,46,48,52)       -170.2729         estimate D2E/DX2                !
 ! D137  D(44,46,49,53)         -7.6093         estimate D2E/DX2                !
 ! D138  D(44,46,49,54)        173.5501         estimate D2E/DX2                !
 ! D139  D(47,46,49,53)       -130.9559         estimate D2E/DX2                !
 ! D140  D(47,46,49,54)         50.2034         estimate D2E/DX2                !
 ! D141  D(48,46,49,53)        112.1056         estimate D2E/DX2                !
 ! D142  D(48,46,49,54)        -66.735          estimate D2E/DX2                !
 ! D143  D(46,49,53,24)        -32.667          estimate D2E/DX2                !
 ! D144  D(54,49,53,24)        146.1226         estimate D2E/DX2                !
 ! D145  D(46,49,54,56)         -1.7228         estimate D2E/DX2                !
 ! D146  D(53,49,54,56)        179.3741         estimate D2E/DX2                !
 --------------------------------------------------------------------------------
 Trust Radius=3.00D-01 FncErr=1.00D-07 GrdErr=1.00D-06
 Number of steps in this run=    319 maximum allowed number of steps=    336.
 GradGradGradGradGradGradGradGradGradGradGradGradGradGradGradGradGradGrad

 Symmetry turned off by external request.
 Stoichiometry    C15H29N5O6S
 Framework group  C1[X(C15H29N5O6S)]
 Deg. of freedom   162
 Full point group                 C1      NOp   1
                          Input orientation:                          
 ---------------------------------------------------------------------
 Center     Atomic      Atomic             Coordinates (Angstroms)
 Number     Number       Type             X           Y           Z
 ---------------------------------------------------------------------
      1          6           0        0.119387    3.885764    1.617843
      2          6           0       -1.478802    4.783133   -0.493595
      3          6           0       -1.163785    5.624675    0.512308
      4          7           0       -0.379338    5.198191    1.539221
      5          1           0       -2.097744    5.092897   -1.324903
      6          1           0       -1.505194    6.652903    0.558619
      7          8           0        0.786015    3.593162    2.614847
      8          7           0       -0.174011    3.041570    0.605177
      9          6           0       -0.937760    3.441080   -0.417728
     10          7           0       -1.193934    2.583729   -1.396342
     11          1           0       -0.906829    1.589889   -1.394249
     12          1           0       -1.864468    2.769151   -2.131782
     13          1           0       -0.139787    5.801797    2.313312
     14         16           0        1.435134   -1.225256   -0.276196
     15          6           0        1.946287   -1.131249   -2.004265
     16          1           0        1.061263   -0.746987   -2.520034
     17          1           0        2.801981   -0.458100   -2.089357
     18          1           0        2.203885   -2.137216   -2.340073
     19          6           0        1.034557    0.495396    0.132539
     20          1           0        1.525184    0.724975    1.082074
     21          1           0        1.369593    1.140538   -0.679941
     22          1           0       -0.044575    0.545970    0.212744
     23          6           0        3.032163   -1.395522    0.555289
     24          1           0        2.853725   -1.319454    1.633013
     25          1           0        3.445688   -2.374190    0.306214
     26          1           0        3.699620   -0.596906    0.224199
     27          6           0       -2.284224   -1.626989   -3.025755
     28          1           0       -3.183972   -1.849898   -2.436211
     29          6           0       -1.240949   -2.711030   -2.793721
     30          6           0       -1.813294   -0.218874   -2.621273
     31          1           0       -0.353628   -2.513162   -3.414211
     32          1           0       -0.906701   -2.665676   -1.750179
     33          6           0       -1.737365   -4.127221   -3.116982
     34          8           0       -2.450544    0.746981   -3.056082
     35          8           0       -0.801821   -0.158389   -1.832647
     36          1           0       -2.632123   -4.319529   -2.505768
     37          6           0       -0.662487   -5.102584   -2.670893
     38          8           0       -0.046118   -5.815064   -3.425613
     39          7           0       -2.092398   -4.252323   -4.519211
     40          1           0       -1.243902   -4.125552   -5.071023
     41          1           0       -2.381619   -5.211394   -4.704845
     42          1           0       -2.603564   -1.606638   -4.070059
     43          1           0       -0.436713   -5.100910   -1.580667
     44          7           0        2.096759    0.958513    3.128184
     45          1           0        3.028328    0.947000    3.536534
     46          6           0        1.134903    0.386608    4.047437
     47          1           0        1.102800    0.899097    5.027018
     48          6           0       -0.266270    0.453433    3.423025
     49          6           0        1.494285   -1.069972    4.321011
     50          1           0       -0.332971   -0.224760    2.567310
     51          1           0       -1.049634    0.182997    4.138003
     52          1           0       -0.446658    1.472841    3.071288
     53          8           0        2.353542   -1.686647    3.747077
     54          8           0        0.751566   -1.675586    5.268946
     55          1           0        1.825771    1.930012    2.940316
     56          1           0        0.112638   -1.049616    5.643568
 ---------------------------------------------------------------------
 Rotational constants (GHZ):      0.1716233      0.0979596      0.0694378
 Standard basis: 6-31G(d) (6D, 7F)
   467 basis functions,   896 primitive gaussians,   467 cartesian basis functions
   109 alpha electrons      109 beta electrons
       nuclear repulsion energy      2808.3389835868 Hartrees.
 NAtoms=   56 NActive=   56 NUniq=   56 SFac= 1.00D+00 NAtFMM=   60 NAOKFM=F Big=F
 Integral buffers will be    131072 words long.
 Raffenetti 2 integral format.
 Two-electron integral symmetry is turned off.
 One-electron integrals computed using PRISM.
 NBasis=   467 RedAO= T EigKep=  1.17D-03  NBF=   467
 NBsUse=   467 1.00D-06 EigRej= -1.00D+00 NBFU=   467
 ExpMin= 1.17D-01 ExpMax= 2.19D+04 ExpMxC= 3.30D+03 IAcc=3 IRadAn=         5 AccDes= 0.00D+00
 Harris functional with IExCor= 1009 and IRadAn=       5 diagonalized for initial guess.
 HarFok:  IExCor= 1009 AccDes= 0.00D+00 IRadAn=         5 IDoV= 1 UseB2=F ITyADJ=14
 ICtDFT=  3500011 ScaDFX=  1.000000  1.000000  1.000000  1.000000
 FoFCou: FMM=F IPFlag=           0 FMFlag=      100000 FMFlg1=           0
         NFxFlg=           0 DoJE=T BraDBF=F KetDBF=T FulRan=T
         wScrn=  0.000000 ICntrl=     500 IOpCl=  0 I1Cent=   200000004 NGrid=           0
         NMat0=    1 NMatS0=      1 NMatT0=    0 NMatD0=    1 NMtDS0=    0 NMtDT0=    0
 Symmetry not used in FoFCou.
 Requested convergence on RMS density matrix=1.00D-08 within 128 cycles.
 Requested convergence on MAX density matrix=1.00D-06.
 Requested convergence on             energy=1.00D-06.
 No special actions if energy rises.
 Integral accuracy reduced to 1.0D-05 until final iterations.
 Initial convergence to 1.0D-05 achieved.  Increase integral accuracy.
 SCF Done:  E(RM062X) =  -1711.73867716     A.U. after   15 cycles
            NFock= 15  Conv=0.88D-08     -V/T= 2.0070

 **********************************************************************

            Population analysis using the SCF density.

 **********************************************************************

 Alpha  occ. eigenvalues --  -90.02895 -19.69569 -19.64150 -19.64037 -19.59441
 Alpha  occ. eigenvalues --  -19.55279 -19.53716 -14.81228 -14.75284 -14.74355
 Alpha  occ. eigenvalues --  -14.73076 -14.73018 -10.69044 -10.66896 -10.63728
 Alpha  occ. eigenvalues --  -10.62906 -10.62002 -10.60278 -10.60274 -10.60178
 Alpha  occ. eigenvalues --  -10.59783 -10.57702 -10.57181 -10.55597 -10.55195
 Alpha  occ. eigenvalues --  -10.53574 -10.50734  -8.37124  -6.29050  -6.29007
 Alpha  occ. eigenvalues --   -6.28676  -1.23856  -1.16826  -1.16124  -1.14959
 Alpha  occ. eigenvalues --   -1.11041  -1.07517  -1.04292  -1.01373  -1.00459
 Alpha  occ. eigenvalues --   -0.98855  -0.98840  -0.96036  -0.87568  -0.85931
 Alpha  occ. eigenvalues --   -0.85165  -0.84014  -0.82584  -0.78257  -0.75183
 Alpha  occ. eigenvalues --   -0.74453  -0.72754  -0.71379  -0.70108  -0.68603
 Alpha  occ. eigenvalues --   -0.64305  -0.64002  -0.62409  -0.60785  -0.59539
 Alpha  occ. eigenvalues --   -0.58047  -0.57413  -0.56862  -0.56538  -0.55951
 Alpha  occ. eigenvalues --   -0.55565  -0.55219  -0.54018  -0.53862  -0.53040
 Alpha  occ. eigenvalues --   -0.52984  -0.52527  -0.52131  -0.51952  -0.51027
 Alpha  occ. eigenvalues --   -0.50598  -0.49993  -0.49137  -0.48542  -0.47965
 Alpha  occ. eigenvalues --   -0.47256  -0.47062  -0.46830  -0.46111  -0.45829
 Alpha  occ. eigenvalues --   -0.45089  -0.44849  -0.44444  -0.44098  -0.43865
 Alpha  occ. eigenvalues --   -0.43843  -0.41891  -0.41279  -0.39835  -0.39715
 Alpha  occ. eigenvalues --   -0.39467  -0.38703  -0.37231  -0.35325  -0.33905
 Alpha  occ. eigenvalues --   -0.33800  -0.32425  -0.31405  -0.29274  -0.29049
 Alpha  occ. eigenvalues --   -0.28439  -0.28087  -0.27773  -0.25974
 Alpha virt. eigenvalues --    0.01476   0.03029   0.03489   0.04836   0.05126
 Alpha virt. eigenvalues --    0.06500   0.08392   0.08792   0.11249   0.11899
 Alpha virt. eigenvalues --    0.13316   0.13619   0.13836   0.14802   0.15196
 Alpha virt. eigenvalues --    0.16256   0.16863   0.16897   0.17451   0.17799
 Alpha virt. eigenvalues --    0.18205   0.18361   0.19364   0.19738   0.20389
 Alpha virt. eigenvalues --    0.20923   0.21327   0.21524   0.21811   0.22772
 Alpha virt. eigenvalues --    0.23074   0.23266   0.23686   0.24197   0.25130
 Alpha virt. eigenvalues --    0.25979   0.26854   0.27382   0.27964   0.28795
 Alpha virt. eigenvalues --    0.29155   0.29825   0.30328   0.31094   0.31568
 Alpha virt. eigenvalues --    0.32562   0.33900   0.36731   0.37737   0.38373
 Alpha virt. eigenvalues --    0.38784   0.39064   0.40108   0.40540   0.42182
 Alpha virt. eigenvalues --    0.42755   0.43258   0.44295   0.45223   0.46929
 Alpha virt. eigenvalues --    0.47373   0.48048   0.49621   0.53269   0.54691
 Alpha virt. eigenvalues --    0.54879   0.56094   0.56522   0.57300   0.57813
 Alpha virt. eigenvalues --    0.58862   0.59249   0.60662   0.60790   0.61187
 Alpha virt. eigenvalues --    0.61561   0.62048   0.63186   0.64168   0.64482
 Alpha virt. eigenvalues --    0.64881   0.65734   0.66098   0.66398   0.66621
 Alpha virt. eigenvalues --    0.67656   0.68136   0.69851   0.70262   0.70459
 Alpha virt. eigenvalues --    0.71828   0.72423   0.72704   0.72995   0.73769
 Alpha virt. eigenvalues --    0.74256   0.75320   0.75937   0.76406   0.77096
 Alpha virt. eigenvalues --    0.77961   0.78483   0.79091   0.79593   0.81042
 Alpha virt. eigenvalues --    0.81964   0.82172   0.82666   0.83233   0.83774
 Alpha virt. eigenvalues --    0.84341   0.85414   0.85877   0.86869   0.87403
 Alpha virt. eigenvalues --    0.88006   0.88998   0.89816   0.90122   0.90387
 Alpha virt. eigenvalues --    0.91418   0.91803   0.92085   0.92425   0.92633
 Alpha virt. eigenvalues --    0.93137   0.93726   0.93837   0.94017   0.94906
 Alpha virt. eigenvalues --    0.95353   0.95641   0.96578   0.96673   0.97218
 Alpha virt. eigenvalues --    0.97692   0.98080   0.99095   0.99927   1.00623
 Alpha virt. eigenvalues --    1.01195   1.01896   1.02032   1.02399   1.03389
 Alpha virt. eigenvalues --    1.03656   1.04056   1.04295   1.05171   1.05312
 Alpha virt. eigenvalues --    1.06622   1.06990   1.07570   1.08344   1.09863
 Alpha virt. eigenvalues --    1.10288   1.11223   1.11430   1.12119   1.13392
 Alpha virt. eigenvalues --    1.13601   1.15130   1.15450   1.16108   1.16556
 Alpha virt. eigenvalues --    1.18355   1.19413   1.20351   1.20788   1.22102
 Alpha virt. eigenvalues --    1.24340   1.26096   1.26735   1.27985   1.29077
 Alpha virt. eigenvalues --    1.29991   1.33535   1.34150   1.34531   1.36159
 Alpha virt. eigenvalues --    1.37082   1.37210   1.38350   1.38565   1.40567
 Alpha virt. eigenvalues --    1.42194   1.43332   1.45279   1.45653   1.46112
 Alpha virt. eigenvalues --    1.47305   1.47695   1.49552   1.50510   1.51083
 Alpha virt. eigenvalues --    1.51508   1.52814   1.54286   1.55432   1.56358
 Alpha virt. eigenvalues --    1.57285   1.57991   1.58423   1.59608   1.63697
 Alpha virt. eigenvalues --    1.65524   1.65698   1.67559   1.68807   1.69531
 Alpha virt. eigenvalues --    1.70031   1.70882   1.71506   1.72109   1.72663
 Alpha virt. eigenvalues --    1.73397   1.76048   1.77440   1.77590   1.78692
 Alpha virt. eigenvalues --    1.79799   1.80329   1.80783   1.81612   1.82295
 Alpha virt. eigenvalues --    1.82706   1.83974   1.85374   1.85508   1.86313
 Alpha virt. eigenvalues --    1.87457   1.87758   1.88897   1.90053   1.91022
 Alpha virt. eigenvalues --    1.91922   1.92544   1.93898   1.94804   1.95469
 Alpha virt. eigenvalues --    1.95565   1.96658   1.98018   1.99365   2.00196
 Alpha virt. eigenvalues --    2.01516   2.02796   2.03705   2.03927   2.05525
 Alpha virt. eigenvalues --    2.06031   2.06104   2.06991   2.08068   2.09082
 Alpha virt. eigenvalues --    2.09282   2.09672   2.10408   2.10939   2.12507
 Alpha virt. eigenvalues --    2.13681   2.16755   2.17155   2.18474   2.20574
 Alpha virt. eigenvalues --    2.20620   2.21831   2.23568   2.23964   2.24240
 Alpha virt. eigenvalues --    2.25045   2.25669   2.26395   2.26705   2.26946
 Alpha virt. eigenvalues --    2.27888   2.28239   2.29587   2.31250   2.32691
 Alpha virt. eigenvalues --    2.34214   2.34535   2.35804   2.37773   2.38702
 Alpha virt. eigenvalues --    2.39807   2.41044   2.43644   2.44194   2.47644
 Alpha virt. eigenvalues --    2.48120   2.49705   2.50917   2.51325   2.52116
 Alpha virt. eigenvalues --    2.56374   2.56809   2.57765   2.58768   2.59588
 Alpha virt. eigenvalues --    2.63274   2.63459   2.64680   2.67327   2.67514
 Alpha virt. eigenvalues --    2.68421   2.70136   2.72216   2.72689   2.73972
 Alpha virt. eigenvalues --    2.74083   2.78572   2.79020   2.80472   2.82744
 Alpha virt. eigenvalues --    2.82962   2.84956   2.90146   2.91683   2.94078
 Alpha virt. eigenvalues --    2.97351   3.03071   3.03741   3.06354   3.08366
 Alpha virt. eigenvalues --    3.09926   3.10218   3.13578   3.25371   3.29154
 Alpha virt. eigenvalues --    3.46016   3.79793   3.87147   3.90865   3.96824
 Alpha virt. eigenvalues --    3.97851   4.01014   4.03522   4.06822   4.11874
 Alpha virt. eigenvalues --    4.13857   4.19709   4.20313   4.23962   4.25097
 Alpha virt. eigenvalues --    4.26048   4.28684   4.32368   4.34714   4.36108
 Alpha virt. eigenvalues --    4.37429   4.39819   4.43293   4.55594   4.58468
 Alpha virt. eigenvalues --    4.62757   4.63435   4.69245
          Condensed to atoms (all electrons):
 Mulliken charges:
               1
     1  C    0.752913
     2  C   -0.248195
     3  C    0.102958
     4  N   -0.686073
     5  H    0.185891
     6  H    0.202397
     7  O   -0.602849
     8  N   -0.623704
     9  C    0.565945
    10  N   -0.848529
    11  H    0.429183
    12  H    0.381687
    13  H    0.369488
    14  S    0.543022
    15  C   -0.662267
    16  H    0.303125
    17  H    0.208032
    18  H    0.220978
    19  C   -0.638971
    20  H    0.272716
    21  H    0.222527
    22  H    0.263770
    23  C   -0.672701
    24  H    0.294541
    25  H    0.220387
    26  H    0.210081
    27  C   -0.369693
    28  H    0.161274
    29  C   -0.300631
    30  C    0.624290
    31  H    0.131416
    32  H    0.159708
    33  C   -0.098422
    34  O   -0.605581
    35  O   -0.696615
    36  H    0.169019
    37  C    0.239829
    38  O   -0.407828
    39  N   -0.723419
    40  H    0.315812
    41  H    0.321314
    42  H    0.192748
    43  H    0.112491
    44  N   -0.808450
    45  H    0.324747
    46  C   -0.115699
    47  H    0.156610
    48  C   -0.491833
    49  C    0.634406
    50  H    0.171014
    51  H    0.147162
    52  H    0.225001
    53  O   -0.462588
    54  O   -0.599035
    55  H    0.390889
    56  H    0.435714
 Sum of Mulliken charges =  -0.00000
 Mulliken charges with hydrogens summed into heavy atoms:
               1
     1  C    0.752913
     2  C   -0.062304
     3  C    0.305355
     4  N   -0.316585
     7  O   -0.602849
     8  N   -0.623704
     9  C    0.565945
    10  N   -0.037659
    14  S    0.543022
    15  C    0.069868
    19  C    0.120042
    23  C    0.052308
    27  C   -0.015671
    29  C   -0.009507
    30  C    0.624290
    33  C    0.070597
    34  O   -0.605581
    35  O   -0.696615
    37  C    0.352319
    38  O   -0.407828
    39  N   -0.086293
    44  N   -0.092814
    46  C    0.040910
    48  C    0.051345
    49  C    0.634406
    53  O   -0.462588
    54  O   -0.163321
 Electronic spatial extent (au):  <R**2>=          15156.8288
 Charge=              0.0000 electrons
 Dipole moment (field-independent basis, Debye):
    X=              3.7776    Y=              4.3598    Z=              5.0359  Tot=              7.6576
 Quadrupole moment (field-independent basis, Debye-Ang):
   XX=           -166.6244   YY=           -151.3091   ZZ=           -176.0045
   XY=             -2.2451   XZ=            -23.9587   YZ=              6.0412
 Traceless Quadrupole moment (field-independent basis, Debye-Ang):
   XX=             -1.9784   YY=             13.3369   ZZ=            -11.3585
   XY=             -2.2451   XZ=            -23.9587   YZ=              6.0412
 Octapole moment (field-independent basis, Debye-Ang**2):
  XXX=             70.0834  YYY=            342.2850  ZZZ=            168.4477  XYY=           -109.7307
  XXY=             -3.7019  XXZ=             29.1258  XZZ=             22.2126  YZZ=             71.5395
  YYZ=             50.3410  XYZ=              9.8953
 Hexadecapole moment (field-independent basis, Debye-Ang**3):
 XXXX=          -2597.3990 YYYY=          -8176.8131 ZZZZ=          -7128.1709 XXXY=            125.2447
 XXXZ=          -1384.7843 YYYX=             25.6200 YYYZ=          -1607.7295 ZZZX=          -1607.9613
 ZZZY=          -1420.2955 XXYY=          -1855.6643 XXZZ=          -1872.5147 YYZZ=          -3076.5009
 XXYZ=           -470.4780 YYXZ=           -356.9767 ZZXY=            165.7781
 N-N= 2.808338983587D+03 E-N=-9.629620421843D+03  KE= 1.699770034461D+03
 Calling FoFJK, ICntrl=      2127 FMM=F ISym2X=0 I1Cent= 0 IOpClX= 0 NMat=1 NMatS=1 NMatT=0.
 -------------------------------------------------------------------
 Center     Atomic                   Forces (Hartrees/Bohr)
 Number     Number              X              Y              Z
 -------------------------------------------------------------------
      1        6          -0.000000362    0.000025604    0.000068226
      2        6          -0.000029595   -0.000058178    0.000057286
      3        6          -0.000063366   -0.000036169    0.000043073
      4        7          -0.000057989    0.000002834    0.000057760
      5        1          -0.000001036   -0.000009103    0.000007268
      6        1          -0.000006609   -0.000008877    0.000002414
      7        8           0.000006805    0.000087281    0.000081980
      8        7           0.000031989    0.000004129    0.000090121
      9        6           0.000015027   -0.000036868    0.000074054
     10        7           0.000042821   -0.000060820    0.000092798
     11        1           0.000004302   -0.000002028    0.000006654
     12        1           0.000004706   -0.000006560    0.000008132
     13        1          -0.000006499   -0.000000336    0.000001053
     14       16           0.000005535   -0.000089406   -0.000205993
     15        6           0.000046136    0.000018263   -0.000058559
     16        1           0.000006881    0.000003016   -0.000004485
     17        1          -0.000000349   -0.000001348   -0.000001161
     18        1           0.000004778    0.000004266   -0.000006677
     19        6           0.000047173   -0.000042149   -0.000006541
     20        1           0.000004024   -0.000007145   -0.000009102
     21        1           0.000001958   -0.000003571    0.000002233
     22        1           0.000011367   -0.000003196    0.000002248
     23        6          -0.000015184   -0.000108123   -0.000059628
     24        1          -0.000003303   -0.000011377   -0.000007049
     25        1          -0.000006901   -0.000006564   -0.000006104
     26        1          -0.000003479   -0.000018135   -0.000000509
     27        6           0.000030069   -0.000003981   -0.000022002
     28        1           0.000009053    0.000004324   -0.000011667
     29        6          -0.000005987   -0.000032663    0.000017956
     30        6           0.000046082   -0.000014540    0.000012538
     31        1          -0.000006847   -0.000007906    0.000012435
     32        1          -0.000011795   -0.000005766   -0.000009986
     33        6          -0.000036303   -0.000010499   -0.000046935
     34        8           0.000074622   -0.000004674    0.000041965
     35        8           0.000058346   -0.000053281    0.000013547
     36        1           0.000005223    0.000004786   -0.000016955
     37        6          -0.000086206   -0.000058321   -0.000006970
     38        8          -0.000079232   -0.000052132    0.000020251
     39        7           0.000077171    0.000030608   -0.000076002
     40        1          -0.000013687   -0.000006145    0.000010740
     41        1           0.000007746    0.000016968   -0.000009225
     42        1           0.000010411   -0.000000226    0.000005315
     43        1          -0.000017920   -0.000007441   -0.000018292
     44        7           0.000006155    0.000067242   -0.000048482
     45        1           0.000000325    0.000005320   -0.000003874
     46        6           0.000012634    0.000076706   -0.000026777
     47        1           0.000003354    0.000006464   -0.000003532
     48        6           0.000000895    0.000096620   -0.000002302
     49        6           0.000003494    0.000042947   -0.000036209
     50        1          -0.000001328    0.000009472    0.000000463
     51        1           0.000001946    0.000008192    0.000000473
     52        1           0.000000235    0.000008298    0.000001416
     53        8          -0.000177842    0.000063767   -0.000060094
     54        8           0.000023172    0.000178957    0.000045542
     55        1           0.000001090    0.000004311   -0.000003382
     56        1           0.000026293   -0.000002846   -0.000009448
 -------------------------------------------------------------------
 Cartesian Forces:  Max     0.000205993 RMS     0.000042867

 GradGradGradGradGradGradGradGradGradGradGradGradGradGradGradGradGradGrad
 Berny optimization.
 FormGI is forming the generalized inverse of G from B-inverse, IUseBI=4.
 Internal  Forces:  Max     0.001418909 RMS     0.000204606
 Search for a local minimum.
 Step number   1 out of a maximum of  319
 All quantities printed in internal units (Hartrees-Bohrs-Radians)
 Mixed Optimization -- En-DIIS/RFO-DIIS
 Second derivative matrix not updated -- first step.
 ITU=  0
     Eigenvalues ---    0.00252   0.00273   0.00297   0.00302   0.00306
     Eigenvalues ---    0.00317   0.00423   0.00471   0.00522   0.00527
     Eigenvalues ---    0.00531   0.00688   0.00714   0.01006   0.01113
     Eigenvalues ---    0.01419   0.01510   0.01571   0.01706   0.01760
     Eigenvalues ---    0.01787   0.01901   0.02023   0.02132   0.02154
     Eigenvalues ---    0.02170   0.02340   0.02380   0.02396   0.02532
     Eigenvalues ---    0.02659   0.02861   0.02892   0.03142   0.03157
     Eigenvalues ---    0.03226   0.03445   0.03631   0.03820   0.03885
     Eigenvalues ---    0.04116   0.04351   0.04503   0.04581   0.04709
     Eigenvalues ---    0.04809   0.04826   0.04919   0.05128   0.05148
     Eigenvalues ---    0.05298   0.05421   0.05444   0.05526   0.05744
     Eigenvalues ---    0.05745   0.05930   0.06241   0.06383   0.06485
     Eigenvalues ---    0.06789   0.07588   0.07715   0.07949   0.08532
     Eigenvalues ---    0.08542   0.08827   0.09516   0.09535   0.10128
     Eigenvalues ---    0.10557   0.10760   0.11119   0.12122   0.12232
     Eigenvalues ---    0.12345   0.12910   0.12942   0.13227   0.13639
     Eigenvalues ---    0.15680   0.15993   0.15999   0.16000   0.16000
     Eigenvalues ---    0.16000   0.16000   0.16000   0.16000   0.16000
     Eigenvalues ---    0.16000   0.16034   0.16447   0.16972   0.17855
     Eigenvalues ---    0.18361   0.18955   0.20045   0.20854   0.21928
     Eigenvalues ---    0.21937   0.22002   0.22127   0.23305   0.23378
     Eigenvalues ---    0.24376   0.24640   0.24912   0.24976   0.24992
     Eigenvalues ---    0.25000   0.25000   0.28618   0.28925   0.28958
     Eigenvalues ---    0.29303   0.30146   0.30516   0.30783   0.32247
     Eigenvalues ---    0.32539   0.33026   0.33607   0.33624   0.33844
     Eigenvalues ---    0.33861   0.34049   0.34295   0.34364   0.34378
     Eigenvalues ---    0.34426   0.34556   0.34559   0.34576   0.34655
     Eigenvalues ---    0.34668   0.34787   0.35466   0.35787   0.37064
     Eigenvalues ---    0.37529   0.38000   0.41608   0.43078   0.43321
     Eigenvalues ---    0.44329   0.44532   0.44787   0.45580   0.45903
     Eigenvalues ---    0.47630   0.52184   0.53429   0.54505   0.55459
     Eigenvalues ---    0.55846   0.59498   0.71839   0.87018   0.88578
     Eigenvalues ---    1.00443   1.01325
 RFO step:  Lambda=-2.62918531D-04 EMin= 2.51566715D-03
 Linear search not attempted -- first point.
 Iteration  1 RMS(Cart)=  0.10100269 RMS(Int)=  0.00179559
 Iteration  2 RMS(Cart)=  0.00388342 RMS(Int)=  0.00010903
 Iteration  3 RMS(Cart)=  0.00000770 RMS(Int)=  0.00010901
 Iteration  4 RMS(Cart)=  0.00000000 RMS(Int)=  0.00010901
 Variable       Old X    -DE/DX   Delta X   Delta X   Delta X     New X
                                 (Linear)    (Quad)   (Total)
    R1        2.65732  -0.00002   0.00000  -0.00014  -0.00014   2.65717
    R2        2.33289  -0.00017   0.00000  -0.00033  -0.00032   2.33258
    R3        2.55235   0.00002   0.00000   0.00027   0.00021   2.55256
    R4        2.54887  -0.00001   0.00000  -0.00021  -0.00014   2.54873
    R5        2.04415  -0.00001   0.00000  -0.00002  -0.00002   2.04413
    R6        2.73821  -0.00002   0.00000   0.00004   0.00004   2.73824
    R7        2.57155  -0.00005   0.00000  -0.00035  -0.00027   2.57128
    R8        2.04925  -0.00001   0.00000  -0.00002  -0.00002   2.04923
    R9        1.90941  -0.00000   0.00000  -0.00000  -0.00000   1.90941
   R10        3.75723  -0.00004   0.00000  -0.00471  -0.00471   3.75252
   R11        2.52776   0.00002   0.00000   0.00003  -0.00003   2.52772
   R12        2.50584   0.00012   0.00000   0.00024   0.00026   2.50610
   R13        1.95489  -0.00007   0.00000   0.00023   0.00024   1.95512
   R14        1.91308  -0.00001   0.00000  -0.00002  -0.00002   1.91306
   R15        3.97098  -0.00036   0.00000  -0.00256  -0.00259   3.96839
   R16        3.41183   0.00010   0.00000   0.00497   0.00496   3.41679
   R17        3.41007   0.00020   0.00000  -0.00039  -0.00035   3.40972
   R18        3.42670   0.00023   0.00000   0.00055   0.00056   3.42726
   R19        3.41767  -0.00004   0.00000  -0.00027  -0.00030   3.41737
   R20        2.06745   0.00000   0.00000  -0.00011  -0.00009   2.06736
   R21        2.06368  -0.00000   0.00000  -0.00000  -0.00000   2.06368
   R22        2.06239  -0.00000   0.00000  -0.00000  -0.00000   2.06239
   R23        3.91407  -0.00009   0.00000   0.00287   0.00286   3.91693
   R24        2.06581   0.00002   0.00000   0.00059   0.00057   2.06637
   R25        2.06022  -0.00000   0.00000  -0.00001  -0.00001   2.06021
   R26        2.04712  -0.00003   0.00000  -0.00028  -0.00031   2.04681
   R27        4.03880   0.00001   0.00000   0.00617   0.00616   4.04496
   R28        2.06933   0.00017   0.00000   0.00009   0.00011   2.06944
   R29        2.06217   0.00000   0.00000   0.00001   0.00001   2.06218
   R30        2.06396  -0.00002   0.00000  -0.00005  -0.00005   2.06392
   R31        4.16353   0.00014   0.00000   0.00072   0.00076   4.16429
   R32        2.07595  -0.00002   0.00000  -0.00005  -0.00005   2.07590
   R33        2.87674  -0.00003   0.00000  -0.00009  -0.00009   2.87665
   R34        2.90807   0.00020   0.00000   0.00068   0.00068   2.90876
   R35        2.06401  -0.00001   0.00000  -0.00002  -0.00002   2.06399
   R36        2.07999  -0.00001   0.00000  -0.00004  -0.00004   2.07995
   R37        2.07247  -0.00001   0.00000  -0.00004  -0.00004   2.07243
   R38        2.90091   0.00015   0.00000   0.00053   0.00053   2.90144
   R39        2.33595  -0.00006   0.00000  -0.00006  -0.00006   2.33589
   R40        2.42642   0.00005   0.00000   0.00007   0.00007   2.42649
   R41        2.07969  -0.00002   0.00000  -0.00005  -0.00005   2.07965
   R42        2.86946  -0.00005   0.00000  -0.00017  -0.00017   2.86929
   R43        2.74365   0.00005   0.00000   0.00013   0.00013   2.74378
   R44        2.28113  -0.00002   0.00000  -0.00002  -0.00002   2.28111
   R45        2.10394  -0.00002   0.00000  -0.00006  -0.00006   2.10388
   R46        1.92763  -0.00002   0.00000  -0.00004  -0.00004   1.92759
   R47        1.92523  -0.00002   0.00000  -0.00004  -0.00004   1.92519
   R48        1.92224  -0.00000   0.00000  -0.00001  -0.00001   1.92223
   R49        2.73669  -0.00025   0.00000  -0.00049  -0.00054   2.73615
   R50        1.93873  -0.00006   0.00000  -0.00053  -0.00054   1.93819
   R51        2.09005   0.00000   0.00000   0.00000   0.00000   2.09005
   R52        2.90160   0.00001   0.00000   0.00003   0.00003   2.90164
   R53        2.88183  -0.00019   0.00000  -0.00086  -0.00086   2.88097
   R54        2.06719  -0.00001   0.00000  -0.00002  -0.00002   2.06718
   R55        2.06836  -0.00000   0.00000  -0.00001  -0.00001   2.06835
   R56        2.06616   0.00001   0.00000   0.00002   0.00002   2.06619
   R57        2.27397   0.00006   0.00000  -0.00006  -0.00002   2.27395
   R58        2.54726  -0.00008   0.00000  -0.00014  -0.00014   2.54712
   R59        1.83256  -0.00002   0.00000  -0.00004  -0.00004   1.83252
    A1        2.04641   0.00004   0.00000  -0.00076  -0.00048   2.04593
    A2        2.05374   0.00008   0.00000   0.00086   0.00083   2.05457
    A3        2.18300  -0.00011   0.00000  -0.00010  -0.00034   2.18266
    A4        2.12716  -0.00003   0.00000  -0.00033  -0.00031   2.12685
    A5        2.03937   0.00007   0.00000   0.00073   0.00070   2.04007
    A6        2.11661  -0.00004   0.00000  -0.00041  -0.00039   2.11622
    A7        2.09657  -0.00000   0.00000  -0.00036  -0.00033   2.09624
    A8        2.15305  -0.00000   0.00000   0.00015   0.00014   2.15319
    A9        2.03356   0.00001   0.00000   0.00020   0.00019   2.03375
   A10        2.14022  -0.00005   0.00000  -0.00027  -0.00032   2.13990
   A11        2.01599   0.00003   0.00000   0.00015   0.00017   2.01616
   A12        2.12654   0.00002   0.00000   0.00011   0.00013   2.12667
   A13        2.23047  -0.00021   0.00000  -0.00075  -0.00129   2.22918
   A14        2.10681  -0.00004   0.00000  -0.00069  -0.00058   2.10623
   A15        2.12923  -0.00006   0.00000  -0.00023  -0.00027   2.12896
   A16        2.08066  -0.00018   0.00000  -0.00277  -0.00252   2.07815
   A17        2.07323   0.00024   0.00000   0.00296   0.00273   2.07596
   A18        2.17249   0.00017   0.00000   0.00742   0.00710   2.17959
   A19        2.14798  -0.00006   0.00000  -0.00335  -0.00317   2.14481
   A20        1.94041  -0.00014   0.00000  -0.00388  -0.00374   1.93667
   A21        2.20520  -0.00013   0.00000  -0.00035  -0.00061   2.20459
   A22        2.81126  -0.00014   0.00000  -0.00608  -0.00586   2.80540
   A23        1.24589   0.00027   0.00000   0.00431   0.00429   1.25017
   A24        1.80184   0.00009   0.00000  -0.00062  -0.00063   1.80121
   A25        1.76710  -0.00003   0.00000  -0.00036  -0.00023   1.76686
   A26        1.75257   0.00001   0.00000   0.00175   0.00158   1.75415
   A27        1.81379   0.00009   0.00000  -0.00029  -0.00031   1.81348
   A28        1.90570  -0.00018   0.00000  -0.00018  -0.00020   1.90550
   A29        1.88967   0.00014   0.00000   0.00034   0.00036   1.89003
   A30        1.96127  -0.00005   0.00000  -0.00012  -0.00010   1.96117
   A31        1.94940   0.00000   0.00000   0.00023   0.00022   1.94962
   A32        1.93826   0.00000   0.00000   0.00001   0.00001   1.93827
   A33        2.30636  -0.00016   0.00000   0.00121   0.00111   2.30747
   A34        1.87121   0.00043   0.00000   0.00412   0.00410   1.87531
   A35        1.90249  -0.00002   0.00000  -0.00007   0.00004   1.90253
   A36        1.85568  -0.00029   0.00000  -0.00297  -0.00333   1.85235
   A37        1.96614  -0.00021   0.00000  -0.00047  -0.00044   1.96570
   A38        1.95301  -0.00013   0.00000  -0.00049  -0.00052   1.95248
   A39        1.91100   0.00022   0.00000  -0.00017   0.00006   1.91106
   A40        1.95555   0.00010   0.00000   0.00079   0.00069   1.95624
   A41        1.87764  -0.00001   0.00000   0.00058   0.00050   1.87814
   A42        1.89033  -0.00008   0.00000  -0.00039  -0.00053   1.88980
   A43        1.90861   0.00009   0.00000  -0.00009   0.00027   1.90889
   A44        1.92696   0.00016   0.00000   0.00042   0.00037   1.92734
   A45        1.92531  -0.00015   0.00000  -0.00051  -0.00047   1.92483
   A46        1.93370  -0.00001   0.00000   0.00000  -0.00013   1.93357
   A47        1.91242  -0.00038   0.00000  -0.00175  -0.00175   1.91066
   A48        1.87052  -0.00030   0.00000  -0.00063  -0.00064   1.86988
   A49        1.85191   0.00016   0.00000  -0.00105  -0.00105   1.85086
   A50        1.98428   0.00120   0.00000   0.00599   0.00599   1.99027
   A51        1.93839  -0.00028   0.00000  -0.00097  -0.00097   1.93742
   A52        1.90047  -0.00047   0.00000  -0.00204  -0.00204   1.89842
   A53        1.91616   0.00029   0.00000   0.00145   0.00145   1.91761
   A54        1.90123   0.00016   0.00000   0.00030   0.00030   1.90154
   A55        1.98584  -0.00075   0.00000  -0.00375  -0.00375   1.98209
   A56        1.85800  -0.00011   0.00000   0.00067   0.00067   1.85868
   A57        1.88370   0.00015   0.00000   0.00027   0.00027   1.88397
   A58        1.91461   0.00029   0.00000   0.00134   0.00134   1.91595
   A59        2.05414  -0.00064   0.00000  -0.00253  -0.00253   2.05161
   A60        2.03265   0.00142   0.00000   0.00569   0.00569   2.03834
   A61        2.19609  -0.00078   0.00000  -0.00309  -0.00309   2.19300
   A62        1.88301  -0.00006   0.00000  -0.00062  -0.00062   1.88239
   A63        1.87739   0.00036   0.00000   0.00226   0.00226   1.87965
   A64        1.94115  -0.00020   0.00000  -0.00071  -0.00071   1.94044
   A65        1.87562  -0.00012   0.00000  -0.00099  -0.00099   1.87463
   A66        1.89919   0.00012   0.00000   0.00015   0.00015   1.89934
   A67        1.98393  -0.00009   0.00000  -0.00013  -0.00013   1.98380
   A68        1.99114   0.00038   0.00000   0.00190   0.00189   1.99303
   A69        1.72029  -0.00079   0.00000  -0.01151  -0.01156   1.70873
   A70        2.08445   0.00020   0.00000  -0.00503  -0.00503   2.07942
   A71        2.16145  -0.00000   0.00000   0.00009   0.00007   2.16152
   A72        2.01557  -0.00000   0.00000   0.00014   0.00012   2.01569
   A73        2.10549   0.00001   0.00000   0.00019   0.00017   2.10566
   A74        1.88425  -0.00001   0.00000  -0.00006  -0.00006   1.88419
   A75        1.90341   0.00002   0.00000   0.00010   0.00010   1.90351
   A76        1.82820  -0.00001   0.00000  -0.00008  -0.00008   1.82812
   A77        2.24979  -0.00017   0.00000  -0.00109  -0.00111   2.24868
   A78        1.96808  -0.00009   0.00000   0.00138   0.00147   1.96955
   A79        1.42783   0.00057   0.00000   0.00732   0.00708   1.43491
   A80        1.92727   0.00023   0.00000   0.00027   0.00033   1.92760
   A81        1.90300  -0.00007   0.00000   0.00137   0.00130   1.90431
   A82        1.89100  -0.00055   0.00000  -0.01081  -0.01074   1.88026
   A83        1.98067  -0.00005   0.00000  -0.00098  -0.00096   1.97970
   A84        1.90792  -0.00001   0.00000  -0.00051  -0.00049   1.90743
   A85        1.91192   0.00006   0.00000   0.00210   0.00204   1.91396
   A86        1.88970  -0.00001   0.00000  -0.00081  -0.00083   1.88887
   A87        1.86558   0.00003   0.00000  -0.00014  -0.00009   1.86549
   A88        1.90665  -0.00001   0.00000   0.00036   0.00035   1.90699
   A89        1.92492   0.00001   0.00000   0.00009   0.00009   1.92501
   A90        1.95705   0.00000   0.00000   0.00002   0.00002   1.95706
   A91        1.89859  -0.00001   0.00000  -0.00007  -0.00007   1.89852
   A92        1.89038   0.00000   0.00000   0.00006   0.00006   1.89044
   A93        1.89265  -0.00000   0.00000  -0.00003  -0.00003   1.89262
   A94        1.89909  -0.00000   0.00000  -0.00007  -0.00007   1.89902
   A95        2.17998   0.00010   0.00000   0.00084   0.00080   2.18078
   A96        2.01024  -0.00023   0.00000  -0.00112  -0.00111   2.00913
   A97        2.09280   0.00013   0.00000   0.00033   0.00034   2.09314
   A98        2.13453   0.00026   0.00000   0.00216   0.00205   2.13658
   A99        1.92270  -0.00002   0.00000  -0.00014  -0.00014   1.92256
   A100       2.85858  -0.00048   0.00000  -0.00499  -0.00528   2.85330
   A101       3.14618  -0.00008   0.00000  -0.00514  -0.00530   3.14087
   A102       3.32120  -0.00039   0.00000  -0.00103  -0.00094   3.32026
   A103       2.91324   0.00035   0.00000   0.07716   0.07705   2.99029
   A104       2.97232   0.00030   0.00000   0.08308   0.08299   3.05531
    D1       -3.10195  -0.00010   0.00000  -0.00048  -0.00050  -3.10245
    D2        0.00863  -0.00007   0.00000  -0.00122  -0.00124   0.00739
    D3        0.03181  -0.00005   0.00000  -0.00064  -0.00066   0.03115
    D4       -3.14080  -0.00002   0.00000  -0.00139  -0.00139   3.14100
    D5       -2.99276  -0.00011   0.00000  -0.00867  -0.00864  -3.00140
    D6        0.15731  -0.00016   0.00000  -0.00849  -0.00848   0.14883
    D7       -0.02515   0.00010   0.00000   0.00409   0.00410  -0.02105
    D8        3.10793   0.00016   0.00000   0.00390   0.00394   3.11186
    D9       -3.13866   0.00004   0.00000   0.00249   0.00250  -3.13616
   D10        0.00264  -0.00001   0.00000   0.00040   0.00040   0.00304
   D11       -0.00709   0.00007   0.00000   0.00203   0.00205  -0.00504
   D12        3.13420   0.00002   0.00000  -0.00005  -0.00005   3.13416
   D13        0.01328  -0.00002   0.00000   0.00139   0.00138   0.01466
   D14       -3.11632  -0.00001   0.00000   0.00573   0.00575  -3.11056
   D15       -3.13828   0.00002   0.00000   0.00094   0.00093  -3.13734
   D16        0.01531   0.00002   0.00000   0.00528   0.00531   0.02062
   D17       -0.01519  -0.00004   0.00000  -0.00244  -0.00244  -0.01763
   D18       -3.12383  -0.00007   0.00000  -0.00165  -0.00166  -3.12550
   D19        3.12668   0.00001   0.00000  -0.00049  -0.00048   3.12619
   D20        0.01803  -0.00002   0.00000   0.00030   0.00030   0.01833
   D21       -1.23114  -0.00021   0.00000  -0.05181  -0.05174  -1.28288
   D22        0.00362  -0.00008   0.00000  -0.00456  -0.00456  -0.00094
   D23        3.13327  -0.00008   0.00000  -0.00892  -0.00897   3.12430
   D24       -3.06261   0.00032   0.00000   0.00383   0.00386  -3.05875
   D25       -0.16644   0.00014   0.00000   0.00431   0.00435  -0.16209
   D26        0.09059   0.00032   0.00000   0.00806   0.00812   0.09871
   D27        2.98676   0.00014   0.00000   0.00854   0.00860   2.99537
   D28        0.13483  -0.00007   0.00000   0.03146   0.03157   0.16640
   D29        2.88444   0.00004   0.00000   0.01446   0.01454   2.89898
   D30       -2.78664   0.00010   0.00000   0.03119   0.03127  -2.75537
   D31       -0.03703   0.00020   0.00000   0.01418   0.01424  -0.02278
   D32       -1.70341  -0.00026   0.00000  -0.01177  -0.01154  -1.71495
   D33        1.56931  -0.00025   0.00000  -0.00420  -0.00398   1.56533
   D34        2.04786   0.00021   0.00000   0.02234   0.02245   2.07031
   D35       -0.18103   0.00030   0.00000   0.03530   0.03535  -0.14567
   D36       -1.42440   0.00029   0.00000   0.00863   0.00868  -1.41572
   D37        2.62990   0.00039   0.00000   0.02159   0.02159   2.65148
   D38       -1.06132   0.00009   0.00000   0.00291   0.00282  -1.05850
   D39        1.03480  -0.00000   0.00000   0.00252   0.00244   1.03723
   D40       -3.13604  -0.00002   0.00000   0.00263   0.00255  -3.13349
   D41       -2.87049   0.00007   0.00000   0.00132   0.00137  -2.86912
   D42       -0.77438  -0.00002   0.00000   0.00094   0.00099  -0.77339
   D43        1.33797  -0.00004   0.00000   0.00105   0.00111   1.33908
   D44       -2.30932   0.00010   0.00000   0.00629   0.00619  -2.30314
   D45       -0.17624   0.00010   0.00000   0.00816   0.00816  -0.16809
   D46        1.88226   0.00018   0.00000   0.00630   0.00644   1.88870
   D47       -0.48898   0.00010   0.00000   0.00626   0.00624  -0.48274
   D48        1.64410   0.00009   0.00000   0.00814   0.00821   1.65231
   D49       -2.58059   0.00018   0.00000   0.00628   0.00649  -2.57409
   D50        3.00370  -0.00020   0.00000  -0.01672  -0.01660   2.98710
   D51       -1.19648  -0.00006   0.00000  -0.01611  -0.01616  -1.21264
   D52        0.91246  -0.00007   0.00000  -0.01640  -0.01648   0.89599
   D53        1.15541  -0.00029   0.00000  -0.01643  -0.01628   1.13913
   D54       -3.04477  -0.00014   0.00000  -0.01582  -0.01585  -3.06062
   D55       -0.93582  -0.00015   0.00000  -0.01612  -0.01616  -0.95199
   D56        0.03425  -0.00035   0.00000  -0.00935  -0.00940   0.02484
   D57       -2.02384  -0.00017   0.00000  -0.00890  -0.00893  -2.03276
   D58        2.06757  -0.00013   0.00000  -0.00901  -0.00904   2.05853
   D59        1.56911  -0.00008   0.00000   0.00137   0.00134   1.57046
   D60       -2.68825  -0.00070   0.00000  -0.01685  -0.01685  -2.70511
   D61        1.12193  -0.00009   0.00000  -0.01010  -0.01047   1.11146
   D62       -1.38192  -0.00016   0.00000  -0.02689  -0.02706  -1.40898
   D63        3.03263   0.00026   0.00000  -0.01417  -0.01439   3.01825
   D64       -1.04469  -0.00014   0.00000   0.01041   0.01026  -1.03444
   D65        2.73464  -0.00021   0.00000  -0.00638  -0.00634   2.72831
   D66        0.86601   0.00020   0.00000   0.00634   0.00634   0.87235
   D67        3.07908  -0.00020   0.00000   0.01015   0.01042   3.08950
   D68        0.57523  -0.00027   0.00000  -0.00665  -0.00617   0.56906
   D69       -1.29340   0.00014   0.00000   0.00607   0.00650  -1.28690
   D70       -1.89596  -0.00008   0.00000  -0.00297  -0.00314  -1.89910
   D71        2.34961  -0.00035   0.00000  -0.00588  -0.00579   2.34382
   D72        0.15689  -0.00015   0.00000  -0.00478  -0.00489   0.15201
   D73       -0.68309  -0.00002   0.00000  -0.00995  -0.00917  -0.69226
   D74       -2.66465  -0.00014   0.00000  -0.03075  -0.03080  -2.69545
   D75        1.47354  -0.00016   0.00000  -0.00562  -0.00606   1.46748
   D76        3.10156  -0.00013   0.00000   0.00856   0.00856   3.11012
   D77       -1.15336  -0.00001   0.00000   0.01035   0.01035  -1.14300
   D78        0.98855  -0.00003   0.00000   0.00972   0.00972   0.99828
   D79       -1.08928   0.00001   0.00000   0.01047   0.01047  -1.07882
   D80        0.93898   0.00013   0.00000   0.01226   0.01226   0.95125
   D81        3.08089   0.00011   0.00000   0.01163   0.01163   3.09252
   D82        1.06126   0.00007   0.00000   0.01149   0.01149   1.07275
   D83        3.08952   0.00019   0.00000   0.01328   0.01328   3.10281
   D84       -1.05175   0.00017   0.00000   0.01265   0.01265  -1.03910
   D85       -1.31734   0.00015   0.00000   0.02895   0.02895  -1.28839
   D86        1.79909   0.00020   0.00000   0.03200   0.03200   1.83110
   D87        2.84994   0.00008   0.00000   0.02784   0.02784   2.87778
   D88       -0.31682   0.00013   0.00000   0.03090   0.03090  -0.28592
   D89        0.67881  -0.00006   0.00000   0.02639   0.02639   0.70520
   D90       -2.48795  -0.00001   0.00000   0.02945   0.02945  -2.45850
   D91       -0.99804   0.00009   0.00000   0.01599   0.01600  -0.98205
   D92       -3.01663   0.00008   0.00000   0.01631   0.01631  -3.00031
   D93        1.08356   0.00007   0.00000   0.01537   0.01537   1.09894
   D94       -3.12908   0.00010   0.00000   0.01642   0.01642  -3.11267
   D95        1.13552   0.00009   0.00000   0.01673   0.01673   1.15225
   D96       -1.04748   0.00008   0.00000   0.01580   0.01580  -1.03168
   D97        1.13651  -0.00001   0.00000   0.01476   0.01476   1.15127
   D98       -0.88207  -0.00002   0.00000   0.01507   0.01507  -0.86700
   D99       -3.06507  -0.00002   0.00000   0.01414   0.01414  -3.05094
   D100      -2.93106   0.00003   0.00000  -0.00418  -0.00411  -2.93517
   D101       1.18840   0.00005   0.00000   0.00522   0.00516   1.19355
   D102       0.18305   0.00009   0.00000  -0.00081  -0.00075   0.18230
   D103      -1.98068   0.00011   0.00000   0.00858   0.00852  -1.97216
   D104      -2.01876  -0.00002   0.00000  -0.01102  -0.01102  -2.02978
   D105       1.08343   0.00005   0.00000   0.00143   0.00143   1.08486
   D106       2.24096  -0.00007   0.00000  -0.01093  -0.01093   2.23003
   D107      -0.94003  -0.00000   0.00000   0.00151   0.00151  -0.93852
   D108       0.13836  -0.00008   0.00000  -0.01035  -0.01035   0.12801
   D109      -3.04263  -0.00001   0.00000   0.00209   0.00209  -3.04054
   D110       1.12628   0.00013   0.00000   0.00113   0.00113   1.12741
   D111       3.10325   0.00012   0.00000   0.00106   0.00106   3.10431
   D112      -3.08499   0.00000   0.00000   0.00003   0.00003  -3.08495
   D113      -1.10802  -0.00000   0.00000  -0.00004  -0.00004  -1.10805
   D114      -0.99572  -0.00012   0.00000  -0.00120  -0.00120  -0.99692
   D115       0.98125  -0.00013   0.00000  -0.00127  -0.00127   0.97998
   D116      -2.62797  -0.00022   0.00000  -0.00483  -0.00469  -2.63266
   D117      -0.51674  -0.00028   0.00000  -0.00688  -0.00674  -0.52348
   D118       1.57190  -0.00027   0.00000  -0.00548  -0.00537   1.56653
   D119       1.00222  -0.00011   0.00000  -0.00535  -0.00543   0.99679
   D120       3.11345  -0.00017   0.00000  -0.00741  -0.00748   3.10597
   D121      -1.08110  -0.00016   0.00000  -0.00600  -0.00611  -1.08721
   D122      -1.08082   0.00017   0.00000  -0.00055  -0.00067  -1.08149
   D123       1.03041   0.00011   0.00000  -0.00261  -0.00272   1.02769
   D124       3.11905   0.00012   0.00000  -0.00120  -0.00135   3.11770
[...]
 1562626,-0.00060569,0.00039508,-0.00043972,0.00010200,-0.00011666,0.00
 000722,-0.00003154,0.00000051,-0.00002527,0.00026418,-0.00037755,0.000
 06180,-0.00000072,-0.00002484,0.00002279,0.00000654,-0.00002641,0.0000
 1314,0.00070673,-0.00055887,0.00034832,0.00046503,-0.00016309,0.000134
 37,-0.00039058,0.00016326,-0.00020330,0.00026807,0.00000899,0.00001776
 ,-0.00025363,0.00011476,-0.00001279,-0.00007999,-0.00002392,0.00000466
 ,-0.00003901,0.00002292,0.00004347,-0.00033746,0.00013894,-0.00232314,
 0.00008197,-0.00029119,-0.00043847,-0.00030074,-0.00000149,0.00014962,
 -0.00000214,-0.00000485,0.00024603,-0.00007887,-0.00001835,0.00004987,
 -0.00042572,-0.00054366,0.00026530,0.00032923,0.00084153,-0.00016209,0
 .00008791,0.00010004,0.00039684,-0.00031137,0.00012813,-0.00021113,-0.
 00032804,0.00018120,-0.00006605,0.00149702,-0.00001448,-0.00062572,-0.
 00000191,-0.00002521,0.00024969,0.00006118,-0.00006160,0.00028715,0.00
 003982,0.00009188,0.00005499,0.00008219,0.00002339,0.00002705,-0.00009
 536,-0.00004288,0.00008807,-0.00117241,-0.00007255,-0.00066544,0.00009
 601,-0.00003189,-0.00012602,-0.00010615,-0.00002417,0.00001738,-0.0000
 4136,-0.00004981,-0.00002027,0.00058430,-0.00024334,0.00021788,0.00137
 416,0.00017130,0.00064241,0.00005491,0.00003109,0.00001744,-0.00010527
 ,0.00002025,0.00023119,0.00012862,0.00001476,-0.00010519,0.00005039,0.
 00006793,-0.00000453,-0.00000109,-0.00004849,-0.00001258,-0.00002486,0
 .00001858,-0.00000182,0.00000800,0.00000395,-0.00000216,-0.00001745,-0
 .00000156,-0.00004782,0.00250799,-0.00444507,0.00010083,0.00015934,0.0
 0057196,0.00022662,0.00349771,-0.00951631,0.01546114,-0.00091460,0.001
 37173,0.00021595,-0.00544035,-0.00274783,-0.00007137,-0.14050012,-0.11
 455228,0.06817442,0.00027990,0.00009780,-0.00000055,0.00280428,0.00032
 292,-0.00120829,0.00229830,-0.00015808,-0.00020302,-0.03112273,-0.0013
 0314,0.06011442,0.24118090,-0.00164038,0.00080709,-0.00189782,0.000172
 93,-0.00006346,0.00013424,-0.00018884,0.00001650,-0.00024036,0.0006620
 4,-0.00076746,0.00039287,0.00001770,-0.00003313,0.00002001,0.00002914,
 -0.00003791,0.00002123,0.00128984,-0.00146958,0.00152324,0.00073683,-0
 .00009702,0.00130358,-0.00082374,-0.00004585,-0.00111612,0.00025337,0.
 00043934,0.00062105,-0.00005359,-0.00027582,-0.00018001,-0.00010415,-0
 .00005455,-0.00013418,-0.00001644,0.00010813,0.00001988,-0.00008670,-0
 .00023951,-0.00051639,0.00000582,0.00007314,-0.00015090,-0.00011955,-0
 .00003053,0.00003058,0.00001748,-0.00001847,0.00005359,-0.00005824,-0.
 00001882,0.00008419,0.00021059,-0.00005568,0.00025007,-0.00015992,0.00
 002483,-0.00129039,-0.00002455,0.00009008,0.00019245,-0.00016783,0.000
 01372,-0.00018871,0.00002050,0.00022234,-0.00006045,0.00046023,-0.0002
 6161,-0.00034986,-0.00002346,0.00000484,0.00013851,0.00006812,-0.00003
 335,0.00000327,0.00008700,0.00009571,0.00006092,0.00004384,0.00002349,
 0.00000626,-0.00006728,-0.00003135,0.00004995,-0.00078312,-0.00036198,
 -0.00054492,0.00005480,-0.00002015,-0.00007173,-0.00004895,-0.00004502
 ,0.00000399,-0.00001617,-0.00002042,-0.00002957,0.00034138,0.00012196,
 0.00024401,0.00082232,0.00044755,0.00062731,0.00003507,0.00001141,0.00
 000719,0.00000591,-0.00006771,0.00034215,0.00001396,0.00007538,-0.0001
 4588,0.00000872,0.00011237,-0.00004493,0.00000353,-0.00005813,0.000004
 21,-0.00000772,0.00001122,0.00001021,-0.00000449,0.00001050,-0.0000027
 6,-0.00000203,-0.00000674,-0.00008016,-0.00067684,-0.01055820,0.001262
 63,-0.00021524,-0.00094888,0.00006403,-0.02618466,-0.01225161,0.022439
 78,-0.00065938,-0.00105226,-0.00047100,-0.00240180,-0.00051397,-0.0000
 5991,-0.07384545,-0.21362739,0.02297734,0.00024216,-0.00038253,0.00023
 286,-0.00000501,-0.00149887,0.00012254,0.00069282,-0.00046201,0.000430
 38,0.00492069,0.03688632,0.00521350,0.03736107,0.39812385,-0.00000145,
 -0.00041555,-0.00034591,-0.00005634,0.00021113,0.00007954,-0.00008780,
 -0.00002662,-0.00013578,-0.00001969,0.00022870,0.00014983,-0.00000371,
 0.00001368,-0.00001336,-0.00000228,0.00001993,-0.00000386,-0.00009383,
 0.00022563,0.00019177,-0.00012425,0.00037283,0.00029472,0.00014484,-0.
 00041332,-0.00015956,-0.00012299,0.00032449,0.00017588,0.00021969,-0.0
 0033028,0.00000680,0.00002823,-0.00003294,-0.00002094,0.00000997,-0.00
 001415,-0.00005561,0.00027759,-0.00039360,0.00249972,-0.00007309,0.000
 39356,0.00049694,0.00027190,-0.00001100,-0.00015595,0.00002540,0.00000
 844,-0.00027405,0.00006780,0.00001212,-0.00003543,0.00030671,0.0002651
 3,-0.00009296,-0.00030027,-0.00101672,-0.00002315,-0.00001157,-0.00006
 914,-0.00030558,0.00021979,-0.00019143,0.00021114,0.00062859,-0.000222
 32,0.00003006,-0.00202289,0.00018146,0.00074298,-0.00000084,0.00003862
 ,-0.00037597,-0.00001628,0.00006342,-0.00042133,-0.00003763,-0.0000985
 7,-0.00006774,-0.00005723,-0.00001057,0.00000129,0.00009085,0.00004411
 ,0.00006603,0.00123210,-0.00009443,0.00076852,-0.00007277,0.00002345,0
 .00008698,0.00008525,0.00004536,-0.00004495,0.00005069,0.00007570,0.00
 005696,-0.00059921,0.00041515,-0.00028135,-0.00128389,0.00002570,-0.00
 078117,-0.00003866,-0.00001950,-0.00000744,-0.00004998,0.00011267,-0.0
 0002903,0.00001054,-0.00013439,-0.00002964,-0.00006580,-0.00008648,-0.
 00009601,0.00000397,0.00004209,0.00003235,0.00003798,-0.00003205,0.000
 00986,-0.00000859,0.00001375,-0.00001892,0.00001460,0.00002338,-0.0000
 0946,-0.00074412,0.00014441,0.00276656,0.00016567,-0.00014763,-0.00059
 367,0.00590310,-0.00179572,0.00334702,-0.00038208,0.00204667,0.0044636
 6,0.00121545,-0.00099058,0.00019163,0.08796340,0.07935620,-0.13411510,
 0.00018423,-0.00042733,0.00001613,-0.00060197,0.00022778,-0.00003324,-
 0.00015528,-0.00006745,0.00004034,0.06326574,0.01431407,-0.06827428,-0
 .27892484,0.12936670,0.48204362,-0.00514498,0.00188952,-0.00572710,0.0
 0029144,-0.00001307,0.00030182,-0.00016473,-0.00003639,-0.00052121,0.0
 0172507,-0.00137861,0.00084773,0.00001519,-0.00004323,0.00002534,0.000
 08256,-0.00005390,0.00005950,-0.00047308,-0.00198552,0.00351083,0.0012
 0853,0.00063338,0.00282376,-0.00120261,-0.00035711,-0.00167970,0.00028
 123,0.00076881,0.00102047,0.00017480,-0.00055931,-0.00015560,-0.000085
 39,-0.00003751,-0.00018042,-0.00003019,0.00021038,0.00007022,0.0000106
 3,0.00006853,0.00021927,-0.00003518,0.00005411,0.00002362,0.00007431,-
 0.00002949,-0.00003256,0.00000450,-0.00000669,-0.00000901,0.00000308,0
 .00000113,-0.00000101,-0.00004555,-0.00022470,-0.00018554,0.00047906,0
 .00013714,0.00035362,0.00010475,-0.00002023,-0.00000053,-0.00006689,-0
 .00018213,-0.00009543,0.00008302,0.00004289,0.00000180,-0.00010437,-0.
 00000468,-0.00001017,-0.00004064,-0.00002114,-0.00002030,-0.00003541,0
 .00001989,0.00003551,0.00002439,0.00003194,0.00001143,-0.00000397,0.00
 000884,-0.00000291,0.00001949,0.00000360,0.00001216,0.00013461,-0.0003
 2967,0.00000939,-0.00000842,0.00000200,0.00000530,0.00000631,-0.000006
 17,-0.00000450,-0.00000344,0.00001503,-0.00001245,-0.00007829,0.000347
 85,0.00006736,-0.00024119,0.00035701,0.00001987,-0.00000125,-0.0000059
 5,-0.00000058,0.00003926,-0.00002973,0.00005455,-0.00003617,0.00002501
 ,-0.00001575,-0.00000855,0.00002337,-0.00001022,0.00000223,-0.00000723
 ,0.00000250,0.00000213,0.00000056,0.00000198,-0.00000361,0.00000679,-0
 .00000276,0.00000014,-0.00000020,-0.00001419,-0.08325155,0.07134664,-0
 .02128462,-0.00540794,0.03412541,-0.00312977,0.00483344,-0.03298817,0.
 00505982,-0.00129236,-0.00062334,0.00092121,0.00029246,-0.00269181,0.0
 0100330,-0.00437476,-0.00011036,0.00461193,-0.00049531,-0.00040512,-0.
 00061648,0.00005864,0.00066313,-0.00040014,-0.00096305,0.00050359,0.00
 096164,0.00058806,-0.00048635,-0.00064930,-0.00140903,-0.00326234,0.00
 006039,0.09386170,0.01042904,0.00073793,0.01390309,-0.00048943,-0.0000
 9879,-0.00070584,0.00093580,0.00026928,0.00128688,-0.00377224,0.003344
 64,-0.00314095,-0.00000952,-0.00000768,-0.00003617,-0.00019465,0.00011
 179,-0.00015657,-0.00642193,-0.00447286,-0.00790692,-0.00334514,-0.002
 60462,-0.00519597,0.00200007,0.00048263,0.00287278,-0.00055465,-0.0016
 0600,-0.00186693,-0.00037544,0.00114485,0.00017252,0.00018983,0.000103
 15,0.00030808,0.00016343,-0.00045614,-0.00012168,-0.00005986,-0.000439
 05,-0.00020184,0.00007684,0.00014919,-0.00005859,-0.00015026,0.0000427
 7,0.00004467,-0.00001092,0.00000662,0.00001594,-0.00003547,-0.00003825
 ,0.00008347,-0.00004331,0.00042470,0.00034123,-0.00034667,-0.00117049,
 -0.00274935,-0.00014623,0.00016294,0.00032908,-0.00008418,0.00018723,-
 0.00018005,-0.00002268,0.00012829,0.00000773,0.00011440,-0.00022478,-0
 .00013155,0.00002072,0.00002622,0.00006235,0.00006815,-0.00001652,-0.0
 0006061,-0.00001676,-0.00004178,-0.00001140,0.00001047,-0.00001357,0.0
 0000041,-0.00004576,-0.00001380,-0.00003514,-0.00053523,0.00063789,-0.
 00022672,0.00002020,-0.00000583,-0.00001920,-0.00001586,-0.00000306,0.
 00001955,0.00000381,-0.00003699,-0.00000112,0.00025671,-0.00074381,-0.
 00001683,0.00071471,-0.00062959,0.00027689,0.00000421,0.00001067,0.000
 00168,-0.00004087,0.00001998,-0.00010164,0.00004222,-0.00001201,0.0000
 4623,0.00002367,-0.00002592,0.00005022,-0.00000568,0.00000943,-0.00001
 452,-0.00001064,0.00000648,-0.00000816,0.00000649,-0.00001083,0.000012
 02,-0.00000162,-0.00000370,0.00003122,0.06848096,-0.38703437,0.0790807
 0,-0.00236668,0.00538607,-0.00525666,-0.00085879,-0.01366561,-0.001362
 70,0.00138237,0.00075982,-0.00120151,0.00129360,0.00248405,-0.00050784
 ,-0.00161281,-0.00149320,0.00143573,-0.00065146,0.00044750,-0.00007444
 ,0.00106776,-0.00039686,0.00006628,-0.00008004,0.00035940,-0.00078046,
 0.00021854,0.00098836,0.00041177,0.00043854,0.00058250,-0.00022759,-0.
 06537204,0.39653441,-0.00458158,0.00332837,-0.00424008,0.00025278,-0.0
 0004099,0.00033991,-0.00026927,-0.00015107,-0.00021959,0.00098128,-0.0
 0145214,0.00086970,0.00005648,-0.00007727,0.00001065,0.00006970,-0.000
 05506,0.00005179,0.00346429,-0.00309904,-0.00146216,0.00193743,0.00052
 167,0.00176140,-0.00110221,-0.00049586,-0.00169023,0.00037760,0.000692
 85,0.00088533,0.00002137,-0.00048520,-0.00016737,-0.00011898,-0.000052
 24,-0.00014368,-0.00004303,0.00016086,0.00010500,0.00022233,-0.0001303
 7,0.00071365,-0.00012143,0.00031871,0.00004983,0.00002757,-0.00003317,
 -0.00007151,0.00004038,-0.00003494,-0.00005551,-0.00001108,-0.00002413
 ,0.00008115,-0.00014716,0.00034172,-0.00073828,0.00025446,-0.00272283,
 -0.00065541,-0.00007365,-0.00003154,-0.00026047,-0.00006436,-0.0000560
 1,0.00007295,0.00006119,-0.00008776,0.00019054,-0.00024843,0.00025682,
 0.00032686,-0.00006396,0.00001736,-0.00010214,0.00002759,-0.00003435,-
 0.00008227,0.00004520,0.00005046,0.00002875,0.00001354,0.00001850,0.00
 000146,-0.00000705,-0.00000630,0.00003317,-0.00022088,-0.00030053,-0.0
 0017663,0.00001207,-0.00000674,-0.00001658,-0.00000602,-0.00001061,-0.
 00000230,-0.00000541,0.00000959,-0.00002243,0.00009806,0.00025056,0.00
 011895,0.00019853,0.00042836,0.00025235,0.00000751,0.00000003,0.000001
 00,0.00003889,-0.00004320,0.00010048,-0.00003068,0.00004202,-0.0000335
 2,-0.00000156,0.00004209,-0.00000990,0.00000206,-0.00002045,0.00000124
 ,-0.00000244,0.00000496,0.00000064,-0.00000384,0.00000893,-0.00000271,
 -0.00000092,-0.00000159,-0.00002491,-0.01128230,0.03307034,-0.02287004
 ,-0.00514705,0.02141509,-0.00603789,0.00374765,0.02079357,-0.01053280,
 0.00167802,0.00137419,-0.00106000,-0.00134393,-0.00012866,0.00246604,-
 0.00004033,-0.00168820,-0.00149190,-0.00051102,-0.00070138,-0.00006372
 ,-0.00078175,0.00003290,-0.00074935,0.00086674,-0.00054464,0.00004362,
 -0.00093174,-0.00132840,-0.00036674,-0.00046860,-0.00099727,0.00058608
 ,0.01306433,-0.06858978,0.04423269,0.00036877,-0.00008916,0.00037650,-
 0.00004142,0.00000070,-0.00002561,0.00004349,0.00000771,0.00005136,-0.
 00014606,0.00013713,-0.00007803,0.00000158,0.00000807,-0.00000814,-0.0
 0000240,0.00000906,-0.00000685,-0.00038632,0.00023541,-0.00027006,-0.0
 0019841,-0.00004173,-0.00019450,0.00015501,0.00002704,0.00015646,-0.00
 008093,-0.00008223,-0.00006730,0.00003447,0.00002987,0.00000489,0.0000
 2792,0.00001247,0.00000295,0.00002413,-0.00000754,-0.00000756,0.000093
 85,0.00001311,-0.00005466,-0.00004923,-0.00000973,-0.00000674,0.000035
 28,-0.00000007,-0.00001393,-0.00000094,-0.00000221,0.00001011,0.000010
 18,0.00000252,-0.00000435,-0.00007155,-0.00008065,-0.00007806,0.000105
 67,0.00009356,0.00031637,0.00000913,0.00000069,-0.00000161,0.00002688,
 0.00000332,-0.00000177,0.00000487,-0.00001082,0.00001399,-0.00001894,0
 .00000218,0.00010119,-0.00001611,-0.00000951,-0.00000018,-0.00002196,0
 .00000966,0.00000346,0.00000502,-0.00001290,-0.00000845,-0.00001636,-0
 .00000600,-0.00000747,0.00000613,0.00000334,-0.00001692,0.00016197,0.0
 0001549,0.00007918,-0.00001631,0.00000405,0.00001652,0.00001892,-0.000
 00113,0.00000061,0.00001538,0.00000713,-0.00000604,-0.00009206,0.00001
 868,-0.00001820,-0.00019094,-0.00004773,-0.00008071,-0.00001041,-0.000
 00588,-0.00000355,0.00003340,-0.00002439,-0.00001717,-0.00003699,0.000
 01514,0.00001261,-0.00001300,-0.00000112,0.00000343,-0.00000017,0.0000
 0439,0.00000124,0.00000556,-0.00000242,0.00000014,-0.00000338,-0.00000
 104,0.00000185,0.00000495,-0.00000100,0.00000465,0.00002923,0.00164030
 ,-0.00192927,-0.00028931,0.00000593,0.00021803,0.00049104,-0.00128254,
 0.00202101,-0.00059196,-0.00148042,-0.00202491,0.00210319,0.00043308,-
 0.00066610,-0.01496305,0.02150434,0.02123297,-0.00052042,0.00001297,-0
 .00003287,-0.00106937,0.00072106,-0.00010879,-0.00053752,-0.00006192,0
 .00015406,0.00138449,-0.00579089,0.00598311,-0.07487849,0.06307004,0.1
 2347485,0.00060689,-0.00028574,0.00006360,0.08845662,0.00049544,-0.000
 29577,0.00064340,-0.00005371,-0.00000436,-0.00005598,0.00008063,-0.000
 01452,0.00010625,-0.00020501,0.00023200,-0.00014092,-0.00000860,0.0000
 1031,-0.00000390,-0.00000918,0.00001000,-0.00000403,-0.00021697,0.0004
 3462,-0.00055276,-0.00017970,0.00006469,-0.00057103,0.00029177,0.00006
 769,0.00048574,-0.00005391,-0.00020889,-0.00028904,-0.00003355,0.00015
 844,0.00008192,0.00003210,0.00002111,0.00006418,-0.00001085,-0.0000436
 5,0.00000986,-0.00003064,0.00013158,-0.00015604,0.00002991,-0.00008756
 ,-0.00002088,-0.00001149,0.00001308,0.00002171,-0.00001007,0.00000719,
 0.00001779,0.00000740,0.00000466,-0.00002448,-0.00011803,-0.00000548,-
 0.00004371,0.00007694,0.00015558,0.00036254,0.00002362,-0.00002081,-0.
 00000912,0.00001430,0.00003104,0.00005769,-0.00007774,-0.00002510,-0.0
 0002161,0.00015729,0.00004509,-0.00004837,0.00001368,-0.00000777,0.000
 01485,-0.00001232,0.00000078,0.00005919,-0.00002363,-0.00002462,-0.000
 01575,-0.00000478,-0.00000564,0.00000158,0.00000457,0.00000520,-0.0000
 0295,0.00010071,0.00014460,0.00009876,-0.00000558,0.00000141,0.0000065
 1,0.00000415,0.00001047,0.00000061,0.00000804,-0.00000005,0.00000717,-
 0.00003177,-0.00010606,-0.00006193,-0.00007121,-0.00016565,-0.00013833
 ,-0.00000577,0.00000101,-0.00000055,-0.00002122,0.00002749,-0.00006504
 ,0.00001497,-0.00002745,0.00002401,-0.00000030,-0.00002844,0.00000929,
 -0.00000154,0.00001273,-0.00000166,0.00000145,-0.00000230,-0.00000308,
 0.00000201,-0.00000306,0.00000051,0.00000128,0.00000253,0.00001655,0.0
 0171612,0.00021400,-0.00173913,-0.00006574,0.00035082,0.00015548,-0.00
 290558,-0.00327318,0.00393672,-0.00133665,-0.00047585,-0.00112264,-0.0
 0108158,-0.00104933,0.00025926,-0.00561097,0.01756001,0.01902145,0.000
 14537,0.00033162,-0.00010217,0.00165887,-0.00067402,0.00049273,0.00027
 581,0.00009825,-0.00013067,-0.00702130,-0.00108723,0.00569235,0.092787
 00,-0.19289230,-0.22136696,-0.00001433,-0.00028268,0.00025177,-0.07870
 969,0.18066381,-0.00028840,0.00030082,-0.00033699,0.00004047,-0.000051
 38,0.00001099,-0.00001718,0.00001791,-0.00001880,0.00012017,-0.0001844
 6,0.00004401,0.00000784,-0.00000684,0.00000256,0.00000733,-0.00000986,
 0.00000422,0.00010537,-0.00034514,0.00030567,0.00008128,-0.00013282,0.
 00032327,-0.00018857,0.00006553,-0.00027022,0.00001785,0.00003884,0.00
 015589,0.00001521,-0.00003592,-0.00006133,-0.00001312,0.00000346,-0.00
 004148,0.00000878,0.00003459,0.00001245,0.00013559,-0.00003203,-0.0000
 5801,-0.00005615,0.00001443,-0.00005016,-0.00000036,-0.00000700,-0.000
 01036,0.00000223,-0.00001127,0.00002411,-0.00000542,-0.00000158,0.0000
 1869,0.00003933,-0.00006518,0.00003855,0.00005314,0.00000006,-0.000110
 11,-0.00002655,0.00002454,0.00004281,-0.00002241,0.00002690,-0.0000991
 3,0.00007320,0.00000807,0.00003278,-0.00002684,-0.00000891,-0.00002754
 ,-0.00000931,0.00000624,-0.00001437,0.00000037,-0.00000665,-0.00003064
 ,0.00001815,0.00002343,0.00001567,0.00000034,0.00000186,-0.00000870,-0
 .00000604,-0.00000571,-0.00003385,-0.00017122,-0.00004500,-0.00014823,
 0.00000228,-0.00000047,-0.00000087,-0.00000138,-0.00001448,0.00001055,
 -0.00000992,-0.00000994,-0.00002092,0.00006908,-0.00000254,0.00008115,
 0.00011349,0.00006773,0.00018820,0.00000152,-0.00000243,-0.00000162,0.
 00005173,-0.00005228,-0.00001702,-0.00004098,0.00005133,0.00002655,0.0
 0000969,0.00002405,0.00003144,-0.00000049,-0.00000734,-0.00000757,-0.0
 0000805,0.00000785,-0.00000297,-0.00000135,-0.00000232,0.00000649,-0.0
 0000177,-0.00000704,0.00000754,0.00018659,-0.00108023,-0.00036825,-0.0
 0017158,-0.00003412,0.00016750,-0.00062472,0.00044283,0.00323272,-0.00
 039105,-0.00001983,-0.00039671,0.00050418,0.00012204,-0.00059147,0.007
 30901,-0.01844148,-0.02729997,-0.00012859,-0.00016742,-0.00002861,-0.0
 0134737,0.00080692,0.00033415,-0.00032591,-0.00037614,0.00028508,0.005
 39190,0.00387867,0.00213853,0.13848236,-0.17968135,-0.29255499,-0.0003
 9839,0.00008822,0.00002490,-0.14856533,0.19479285,0.31504439\\-0.00000
 037,-0.00000009,-0.00000002,-0.00000091,-0.00000030,0.00000040,-0.0000
 0087,-0.00000025,0.00000036,-0.00000074,-0.00000011,0.00000023,-0.0000
 0110,-0.00000040,0.00000056,-0.00000108,-0.00000033,0.00000047,-0.0000
 0020,0.00000026,-0.00000007,-0.00000038,0.,0.00000002,-0.00000068,-0.0
 0000017,0.00000028,-0.00000060,-0.00000022,0.00000037,-0.00000063,-0.0
 0000007,0.00000011,-0.00000083,-0.00000032,0.00000045,-0.00000059,-0.0
 0000005,0.00000012,0.00000010,0.00000033,-0.00000037,-0.00000025,0.000
 00041,-0.00000041,-0.00000051,0.00000021,-0.00000019,-0.00000041,0.000
 00058,-0.00000056,-0.00000018,0.00000049,-0.00000050,-0.00000003,0.000
 00026,-0.00000021,0.00000013,0.00000025,-0.00000040,-0.00000031,0.0000
 0028,-0.00000026,0.,0.00000003,0.,0.00000033,0.00000062,-0.00000070,0.
 00000056,0.00000056,-0.00000066,0.00000038,0.00000068,-0.00000079,0.00
 000010,0.00000074,-0.00000076,-0.00000026,-0.00000034,0.00000041,-0.00
 000017,-0.00000056,0.00000057,0.00000002,-0.00000019,0.00000021,-0.000
 00043,-0.00000028,0.00000028,-0.00000001,0.,-0.00000002,0.00000026,-0.
 00000022,0.00000019,0.00000020,-0.00000020,0.00000018,-0.00000068,-0.0
 0000042,0.00000054,-0.00000016,-0.00000007,0.00000014,0.00000031,-0.00
 000046,0.00000046,0.00000057,-0.00000019,0.00000007,0.00000060,0.00000
 008,-0.00000010,-0.00000006,-0.00000022,0.00000025,-0.00000008,-0.0000
 0002,0.00000002,0.00000006,-0.00000025,0.00000027,-0.00000047,-0.00000
 030,0.00000039,0.00000074,-0.00000019,0.00000009,0.00000044,0.00000040
 ,-0.00000028,0.00000059,0.00000043,-0.00000061,0.00000064,0.00000008,-
 0.00000020,0.00000093,0.00000009,-0.00000020,0.00000050,-0.00000019,0.
 00000010,0.00000065,0.00000004,0.00000001,0.00000027,-0.00000015,0.000
 00012,0.00000068,-0.00000031,0.00000025,0.00000039,-0.00000015,0.00000
 011,0.00000084,0.00000017,-0.00000032,0.00000128,-0.00000002,-0.000000
 14,0.00000021,0.00000022,-0.00000033,0.00000122,-0.00000018,0.00000004
 \\\@


 Some scientists claim that hydrogen, because it is so
 plentiful, is the basic building block of the universe. 
 I dispute that. I say that stupidity is far more
 abundant than hydrogen, and THAT is the basic building 
 block of the universe.
                   --Frank Zappa
 Job cpu time:       0 days  9 hours 15 minutes 16.4 seconds.
 File lengths (MBytes):  RWF=   1466 Int=      0 D2E=      0 Chk=     19 Scr=      1
 Normal termination of Gaussian 09 at Thu Mar 25 06:21:35 2021.
