 Entering Gaussian System, Link 0=g09
 Initial command:
 /opt/software/gaussian/g09.e01/l1.exe "/localscratch/enas93.64557593.0/Gau-48654.inp" -scrdir="/localscratch/enas93.64557593.0/"
 Entering Link 1 = /opt/software/gaussian/g09.e01/l1.exe PID=     48683.
  
 Copyright (c) 1988,1990,1992,1993,1995,1998,2003,2009,2015,
            Gaussian, Inc.  All Rights Reserved.
  
 This is part of the Gaussian(R) 09 program.  It is based on
 the Gaussian(R) 03 system (copyright 2003, Gaussian, Inc.),
 the Gaussian(R) 98 system (copyright 1998, Gaussian, Inc.),
 the Gaussian(R) 94 system (copyright 1995, Gaussian, Inc.),
 the Gaussian 92(TM) system (copyright 1992, Gaussian, Inc.),
 the Gaussian 90(TM) system (copyright 1990, Gaussian, Inc.),
 the Gaussian 88(TM) system (copyright 1988, Gaussian, Inc.),
 the Gaussian 86(TM) system (copyright 1986, Carnegie Mellon
 University), and the Gaussian 82(TM) system (copyright 1983,
 Carnegie Mellon University). Gaussian is a federally registered
 trademark of Gaussian, Inc.
  
 This software contains proprietary and confidential information,
 including trade secrets, belonging to Gaussian, Inc.
  
 This software is provided under written license and may be
 used, copied, transmitted, or stored only in accord with that
 written license.
  
 The following legend is applicable only to US Government
 contracts under FAR:
  
                    RESTRICTED RIGHTS LEGEND
  
 Use, reproduction and disclosure by the US Government is
 subject to restrictions as set forth in subparagraphs (a)
 and (c) of the Commercial Computer Software - Restricted
 Rights clause in FAR 52.227-19.
  
 Gaussian, Inc.
 340 Quinnipiac St., Bldg. 40, Wallingford CT 06492
  
  
 ---------------------------------------------------------------
 Warning -- This program may not be used in any manner that
 competes with the business of Gaussian, Inc. or will provide
 assistance to any competitor of Gaussian, Inc.  The licensee
 of this program is prohibited from giving any competitor of
 Gaussian, Inc. access to this program.  By using this program,
 the user acknowledges that Gaussian, Inc. is engaged in the
 business of creating and licensing software in the field of
 computational chemistry and represents and warrants to the
 licensee that it is not a competitor of Gaussian, Inc. and that
 it will not use this program in any manner prohibited above.
 ---------------------------------------------------------------
  

 Cite this work as:
 Gaussian 09, Revision E.01,
 M. J. Frisch, G. W. Trucks, H. B. Schlegel, G. E. Scuseria, 
 M. A. Robb, J. R. Cheeseman, G. Scalmani, V. Barone, B. Mennucci, 
 G. A. Petersson, H. Nakatsuji, M. Caricato, X. Li, H. P. Hratchian, 
 A. F. Izmaylov, J. Bloino, G. Zheng, J. L. Sonnenberg, M. Hada, 
 M. Ehara, K. Toyota, R. Fukuda, J. Hasegawa, M. Ishida, T. Nakajima, 
 Y. Honda, O. Kitao, H. Nakai, T. Vreven, J. A. Montgomery, Jr., 
 J. E. Peralta, F. Ogliaro, M. Bearpark, J. J. Heyd, E. Brothers, 
 K. N. Kudin, V. N. Staroverov, T. Keith, R. Kobayashi, J. Normand, 
 K. Raghavachari, A. Rendell, J. C. Burant, S. S. Iyengar, J. Tomasi, 
 M. Cossi, N. Rega, J. M. Millam, M. Klene, J. E. Knox, J. B. Cross, 
 V. Bakken, C. Adamo, J. Jaramillo, R. Gomperts, R. E. Stratmann, 
 O. Yazyev, A. J. Austin, R. Cammi, C. Pomelli, J. W. Ochterski, 
 R. L. Martin, K. Morokuma, V. G. Zakrzewski, G. A. Voth, 
 P. Salvador, J. J. Dannenberg, S. Dapprich, A. D. Daniels, 
 O. Farkas, J. B. Foresman, J. V. Ortiz, J. Cioslowski, 
 and D. J. Fox, Gaussian, Inc., Wallingford CT, 2013.
 
 ******************************************
 Gaussian 09:  EM64L-G09RevE.01 30-Nov-2015
                24-Mar-2021 
 ******************************************
 %nprocshared=16
 Will use up to   16 processors via shared memory.
 %mem=10GB
 ----------------------------------------------------
 # opt=(tight,modredundant) freq apfd/6-31g(d) nosymm
 ----------------------------------------------------
 1/7=10,14=-1,18=120,19=15,26=3,38=1/1,3;
 2/9=110,12=2,15=1,17=6,18=5,40=1/2;
 3/5=1,6=6,7=1,11=2,16=1,25=1,30=1,71=1,74=-44/1,2,3;
 4//1;
 5/5=2,38=5/2;
 6/7=2,8=2,9=2,10=2,28=1/1;
 7/30=1/1,2,3,16;
 1/7=10,14=-1,18=20,19=15,26=3/3(2);
 2/9=110,15=1/2;
 99//99;
 2/9=110,15=1/2;
 3/5=1,6=6,7=1,11=2,16=1,25=1,30=1,71=1,74=-44/1,2,3;
 4/5=5,16=3,69=1/1;
 5/5=2,38=5/2;
 7/30=1/1,2,3,16;
 1/7=10,14=-1,18=20,19=15,26=3/3(-5);
 2/9=110,15=1/2;
 6/7=2,8=2,9=2,10=2,19=2,28=1/1;
 99/9=1/99;
 -------------------
 Title Card Required
 -------------------
 Symbolic Z-matrix:
 Charge =  0 Multiplicity = 1
 C                    -0.83046   2.76734   1.46706 
 C                    -2.75877   1.23292   2.80568 
 C                    -2.82711   2.58148   2.84491 
 N                    -1.89468   3.3333    2.20525 
 H                    -3.48842   0.61202   3.30829 
 H                    -3.60617   3.12115   3.37251 
 O                    -0.06037   3.52428   0.88921 
 N                    -0.74799   1.4121    1.45039 
 C                    -1.65371   0.66305   2.06406 
 N                    -1.51809  -0.6635    1.99508 
 H                    -0.76619  -1.0915    1.42749 
 H                    -2.23413  -1.26691   2.36749 
 H                    -1.93371   4.34312   2.20506 
 P                     0.00815  -2.39266  -0.89006 
 O                     0.17297  -1.52788  -2.10543 
 O                     0.47365  -1.9389    0.46987 
 O                    -1.5643   -2.80139  -0.73215 
 O                     0.75549  -3.80847  -1.22474 
 H                    -1.97548  -2.77196  -1.609 
 H                     0.87529  -4.29667  -0.39651 
 S                     2.04021   0.43929  -2.08623 
 C                     2.8985   -1.05743  -1.51677 
 H                     3.97142  -0.89046  -1.62715 
 H                     2.61755  -1.24728  -0.4781 
 H                     2.54653  -1.87695  -2.13979 
 C                     3.32801   1.65959  -1.71142 
 H                     2.91817   2.6503   -1.91321 
 H                     3.61873   1.58692  -0.66135 
 H                     4.18465   1.47765  -2.36224 
 C                     0.86472   0.88138  -0.76602 
 H                     0.95706   1.94725  -0.54567 
 H                    -0.12086   0.62382  -1.14151 
 H                     1.07573   0.2708    0.10973 
 
 Add virtual bond connecting atoms O16        and H11        Dist= 3.37D+00.
 Add virtual bond connecting atoms H24        and O16        Dist= 4.62D+00.
 Add virtual bond connecting atoms H25        and O15        Dist= 4.53D+00.
 Add virtual bond connecting atoms H31        and O7         Dist= 4.46D+00.
 Add virtual bond connecting atoms H32        and O15        Dist= 4.49D+00.
 Add virtual bond connecting atoms H33        and O16        Dist= 4.38D+00.
 The following ModRedundant input section has been read:
 A       8      30      21 F                                                   
 

 GradGradGradGradGradGradGradGradGradGradGradGradGradGradGradGradGradGrad
 Berny optimization.
 Initialization pass.
                           ----------------------------
                           !    Initial Parameters    !
                           ! (Angstroms and Degrees)  !
 --------------------------                            --------------------------
 ! Name  Definition              Value          Derivative Info.                !
 --------------------------------------------------------------------------------
 ! R1    R(1,4)                  1.4134         estimate D2E/DX2                !
 ! R2    R(1,7)                  1.2247         estimate D2E/DX2                !
 ! R3    R(1,8)                  1.3578         estimate D2E/DX2                !
 ! R4    R(2,3)                  1.3509         estimate D2E/DX2                !
 ! R5    R(2,5)                  1.0819         estimate D2E/DX2                !
 ! R6    R(2,9)                  1.4477         estimate D2E/DX2                !
 ! R7    R(3,4)                  1.3579         estimate D2E/DX2                !
 ! R8    R(3,6)                  1.0847         estimate D2E/DX2                !
 ! R9    R(4,13)                 1.0106         estimate D2E/DX2                !
 ! R10   R(7,31)                 2.3624         estimate D2E/DX2                !
 ! R11   R(8,9)                  1.3259         estimate D2E/DX2                !
 ! R12   R(9,10)                 1.3352         estimate D2E/DX2                !
 ! R13   R(10,11)                1.0347         estimate D2E/DX2                !
 ! R14   R(10,12)                1.0077         estimate D2E/DX2                !
 ! R15   R(11,16)                1.7811         estimate D2E/DX2                !
 ! R16   R(14,15)                1.5007         estimate D2E/DX2                !
 ! R17   R(14,16)                1.5073         estimate D2E/DX2                !
 ! R18   R(14,17)                1.6324         estimate D2E/DX2                !
 ! R19   R(14,18)                1.6356         estimate D2E/DX2                !
 ! R20   R(15,25)                2.3993         estimate D2E/DX2                !
 ! R21   R(15,32)                2.376          estimate D2E/DX2                !
 ! R22   R(16,24)                2.444          estimate D2E/DX2                !
 ! R23   R(16,33)                2.3184         estimate D2E/DX2                !
 ! R24   R(17,19)                0.9689         estimate D2E/DX2                !
 ! R25   R(18,20)                0.9689         estimate D2E/DX2                !
 ! R26   R(21,22)                1.8169         estimate D2E/DX2                !
 ! R27   R(21,26)                1.8133         estimate D2E/DX2                !
 ! R28   R(21,30)                1.8221         estimate D2E/DX2                !
 ! R29   R(22,23)                1.0914         estimate D2E/DX2                !
 ! R30   R(22,24)                1.0926         estimate D2E/DX2                !
 ! R31   R(22,25)                1.088          estimate D2E/DX2                !
 ! R32   R(26,27)                1.091          estimate D2E/DX2                !
 ! R33   R(26,28)                1.092          estimate D2E/DX2                !
 ! R34   R(26,29)                1.0911         estimate D2E/DX2                !
 ! R35   R(30,31)                1.0923         estimate D2E/DX2                !
 ! R36   R(30,32)                1.0857         estimate D2E/DX2                !
 ! R37   R(30,33)                1.0882         estimate D2E/DX2                !
 ! A1    A(4,1,7)              118.1889         estimate D2E/DX2                !
 ! A2    A(4,1,8)              116.8586         estimate D2E/DX2                !
 ! A3    A(7,1,8)              124.9516         estimate D2E/DX2                !
 ! A4    A(3,2,5)              121.6885         estimate D2E/DX2                !
 ! A5    A(3,2,9)              116.5164         estimate D2E/DX2                !
 ! A6    A(5,2,9)              121.7938         estimate D2E/DX2                !
 ! A7    A(2,3,4)              120.2858         estimate D2E/DX2                !
 ! A8    A(2,3,6)              123.1717         estimate D2E/DX2                !
 ! A9    A(4,3,6)              116.5425         estimate D2E/DX2                !
 ! A10   A(1,4,3)              122.7754         estimate D2E/DX2                !
 ! A11   A(1,4,13)             115.4107         estimate D2E/DX2                !
 ! A12   A(3,4,13)             121.7914         estimate D2E/DX2                !
 ! A13   A(1,7,31)              98.3255         estimate D2E/DX2                !
 ! A14   A(1,8,9)              121.1103         estimate D2E/DX2                !
 ! A15   A(2,9,8)              122.4204         estimate D2E/DX2                !
 ! A16   A(2,9,10)             119.6735         estimate D2E/DX2                !
 ! A17   A(8,9,10)             117.903          estimate D2E/DX2                !
 ! A18   A(9,10,11)            120.869          estimate D2E/DX2                !
 ! A19   A(9,10,12)            120.2402         estimate D2E/DX2                !
 ! A20   A(11,10,12)           118.1228         estimate D2E/DX2                !
 ! A21   A(15,14,16)           121.5526         estimate D2E/DX2                !
 ! A22   A(15,14,17)           109.1734         estimate D2E/DX2                !
 ! A23   A(15,14,18)           106.4345         estimate D2E/DX2                !
 ! A24   A(16,14,17)           106.5944         estimate D2E/DX2                !
 ! A25   A(16,14,18)           107.704          estimate D2E/DX2                !
 ! A26   A(17,14,18)           104.0762         estimate D2E/DX2                !
 ! A27   A(14,15,25)            92.0866         estimate D2E/DX2                !
 ! A28   A(14,15,32)           100.3532         estimate D2E/DX2                !
 ! A29   A(25,15,32)           105.0641         estimate D2E/DX2                !
 ! A30   A(11,16,14)           114.4142         estimate D2E/DX2                !
 ! A31   A(11,16,24)           133.1988         estimate D2E/DX2                !
 ! A32   A(11,16,33)            79.0959         estimate D2E/DX2                !
 ! A33   A(14,16,24)            90.3524         estimate D2E/DX2                !
 ! A34   A(14,16,33)           103.1192         estimate D2E/DX2                !
 ! A35   A(24,16,33)            56.098          estimate D2E/DX2                !
 ! A36   A(14,17,19)           108.2792         estimate D2E/DX2                !
 ! A37   A(14,18,20)           108.5281         estimate D2E/DX2                !
 ! A38   A(22,21,26)            98.8645         estimate D2E/DX2                !
 ! A39   A(22,21,30)           106.1127         estimate D2E/DX2                !
 ! A40   A(26,21,30)            98.3442         estimate D2E/DX2                !
 ! A41   A(21,22,23)           107.858          estimate D2E/DX2                !
 ! A42   A(21,22,24)           108.6396         estimate D2E/DX2                !
 ! A43   A(21,22,25)           106.7508         estimate D2E/DX2                !
 ! A44   A(23,22,24)           112.0554         estimate D2E/DX2                !
 ! A45   A(23,22,25)           112.0457         estimate D2E/DX2                !
 ! A46   A(24,22,25)           109.2876         estimate D2E/DX2                !
 ! A47   A(16,24,22)           130.0496         estimate D2E/DX2                !
 ! A48   A(15,25,22)           101.6685         estimate D2E/DX2                !
 ! A49   A(21,26,27)           107.8244         estimate D2E/DX2                !
 ! A50   A(21,26,28)           110.0634         estimate D2E/DX2                !
 ! A51   A(21,26,29)           108.7887         estimate D2E/DX2                !
 ! A52   A(27,26,28)           109.7742         estimate D2E/DX2                !
 ! A53   A(27,26,29)           109.6356         estimate D2E/DX2                !
 ! A54   A(28,26,29)           110.699          estimate D2E/DX2                !
 ! A55   A(8,30,21)            173.6894         Frozen                          !
 ! A56   A(21,30,31)           109.1703         estimate D2E/DX2                !
 ! A57   A(21,30,32)           106.1102         estimate D2E/DX2                !
 ! A58   A(21,30,33)           108.7748         estimate D2E/DX2                !
 ! A59   A(31,30,32)           112.2099         estimate D2E/DX2                !
 ! A60   A(31,30,33)           111.639          estimate D2E/DX2                !
 ! A61   A(32,30,33)           108.7379         estimate D2E/DX2                !
 ! A62   A(7,31,30)            137.5193         estimate D2E/DX2                !
 ! A63   A(15,32,30)           104.0574         estimate D2E/DX2                !
 ! A64   A(16,33,30)           127.5476         estimate D2E/DX2                !
 ! A65   L(10,11,16,7,-1)      183.9765         estimate D2E/DX2                !
 ! A66   L(10,11,16,7,-2)      180.5882         estimate D2E/DX2                !
 ! D1    D(7,1,4,3)            177.8015         estimate D2E/DX2                !
 ! D2    D(7,1,4,13)            -0.4998         estimate D2E/DX2                !
 ! D3    D(8,1,4,3)             -1.8682         estimate D2E/DX2                !
 ! D4    D(8,1,4,13)           179.8305         estimate D2E/DX2                !
 ! D5    D(4,1,7,31)          -164.4961         estimate D2E/DX2                !
 ! D6    D(8,1,7,31)            15.1444         estimate D2E/DX2                !
 ! D7    D(4,1,8,9)              2.165          estimate D2E/DX2                !
 ! D8    D(7,1,8,9)           -177.4799         estimate D2E/DX2                !
 ! D9    D(5,2,3,4)            179.9034         estimate D2E/DX2                !
 ! D10   D(5,2,3,6)             -0.1228         estimate D2E/DX2                !
 ! D11   D(9,2,3,4)              0.3114         estimate D2E/DX2                !
 ! D12   D(9,2,3,6)           -179.7148         estimate D2E/DX2                !
 ! D13   D(3,2,9,8)              0.0131         estimate D2E/DX2                !
 ! D14   D(3,2,9,10)           179.3575         estimate D2E/DX2                !
 ! D15   D(5,2,9,8)           -179.5785         estimate D2E/DX2                !
 ! D16   D(5,2,9,10)            -0.2341         estimate D2E/DX2                !
 ! D17   D(2,3,4,1)              0.6319         estimate D2E/DX2                !
 ! D18   D(2,3,4,13)           178.8266         estimate D2E/DX2                !
 ! D19   D(6,3,4,1)           -179.3436         estimate D2E/DX2                !
 ! D20   D(6,3,4,13)            -1.1489         estimate D2E/DX2                !
 ! D21   D(1,7,31,30)            1.9164         estimate D2E/DX2                !
 ! D22   D(1,8,9,2)             -1.3238         estimate D2E/DX2                !
 ! D23   D(1,8,9,10)           179.3207         estimate D2E/DX2                !
 ! D24   D(2,9,10,11)          176.6015         estimate D2E/DX2                !
 ! D25   D(2,9,10,12)            6.8273         estimate D2E/DX2                !
 ! D26   D(8,9,10,11)           -4.0247         estimate D2E/DX2                !
 ! D27   D(8,9,10,12)         -173.7988         estimate D2E/DX2                !
 ! D28   D(9,10,16,14)         -96.8149         estimate D2E/DX2                !
 ! D29   D(9,10,16,24)          19.8917         estimate D2E/DX2                !
 ! D30   D(9,10,16,33)           3.43           estimate D2E/DX2                !
 ! D31   D(12,10,16,14)         72.9242         estimate D2E/DX2                !
 ! D32   D(12,10,16,24)       -170.3692         estimate D2E/DX2                !
 ! D33   D(12,10,16,33)        173.1691         estimate D2E/DX2                !
 ! D34   D(16,14,15,25)         71.668          estimate D2E/DX2                !
 ! D35   D(16,14,15,32)        -34.0576         estimate D2E/DX2                !
 ! D36   D(17,14,15,25)       -163.6971         estimate D2E/DX2                !
 ! D37   D(17,14,15,32)         90.5772         estimate D2E/DX2                !
 ! D38   D(18,14,15,25)        -51.918          estimate D2E/DX2                !
 ! D39   D(18,14,15,32)       -157.6437         estimate D2E/DX2                !
 ! D40   D(15,14,16,11)         91.5825         estimate D2E/DX2                !
 ! D41   D(15,14,16,24)        -47.4043         estimate D2E/DX2                !
 ! D42   D(15,14,16,33)          7.7548         estimate D2E/DX2                !
 ! D43   D(17,14,16,11)        -34.2312         estimate D2E/DX2                !
 ! D44   D(17,14,16,24)       -173.218          estimate D2E/DX2                !
 ! D45   D(17,14,16,33)       -118.0588         estimate D2E/DX2                !
 ! D46   D(18,14,16,11)       -145.4252         estimate D2E/DX2                !
 ! D47   D(18,14,16,24)         75.588          estimate D2E/DX2                !
 ! D48   D(18,14,16,33)        130.7471         estimate D2E/DX2                !
 ! D49   D(15,14,17,19)         25.896          estimate D2E/DX2                !
 ! D50   D(16,14,17,19)        158.8735         estimate D2E/DX2                !
 ! D51   D(18,14,17,19)        -87.4319         estimate D2E/DX2                !
 ! D52   D(15,14,18,20)        165.1887         estimate D2E/DX2                !
 ! D53   D(16,14,18,20)         33.3641         estimate D2E/DX2                !
 ! D54   D(17,14,18,20)        -79.5353         estimate D2E/DX2                !
 ! D55   D(14,15,25,22)        -89.9099         estimate D2E/DX2                !
 ! D56   D(32,15,25,22)         11.3956         estimate D2E/DX2                !
 ! D57   D(14,15,32,30)         84.7484         estimate D2E/DX2                !
 ! D58   D(25,15,32,30)        -10.2714         estimate D2E/DX2                !
 ! D59   D(11,16,24,22)       -107.411          estimate D2E/DX2                !
 ! D60   D(14,16,24,22)         17.5334         estimate D2E/DX2                !
 ! D61   D(33,16,24,22)        -88.0918         estimate D2E/DX2                !
 ! D62   D(11,16,33,30)       -100.8115         estimate D2E/DX2                !
 ! D63   D(14,16,33,30)         11.9759         estimate D2E/DX2                !
 ! D64   D(24,16,33,30)         93.4061         estimate D2E/DX2                !
 ! D65   D(26,21,22,23)        -28.3753         estimate D2E/DX2                !
 ! D66   D(26,21,22,24)         93.2945         estimate D2E/DX2                !
 ! D67   D(26,21,22,25)       -148.9588         estimate D2E/DX2                !
 ! D68   D(30,21,22,23)       -129.7914         estimate D2E/DX2                !
 ! D69   D(30,21,22,24)         -8.1216         estimate D2E/DX2                !
 ! D70   D(30,21,22,25)        109.6252         estimate D2E/DX2                !
 ! D71   D(22,21,26,27)       -174.5306         estimate D2E/DX2                !
 ! D72   D(22,21,26,28)        -54.8104         estimate D2E/DX2                !
 ! D73   D(22,21,26,29)         66.6378         estimate D2E/DX2                !
 ! D74   D(30,21,26,27)        -66.6663         estimate D2E/DX2                !
 ! D75   D(30,21,26,28)         53.0539         estimate D2E/DX2                !
 ! D76   D(30,21,26,29)        174.502          estimate D2E/DX2                !
 ! D77   D(22,21,30,31)        132.1991         estimate D2E/DX2                !
 ! D78   D(22,21,30,32)       -106.6721         estimate D2E/DX2                !
 ! D79   D(22,21,30,33)         10.1579         estimate D2E/DX2                !
 ! D80   D(26,21,30,31)         30.3997         estimate D2E/DX2                !
 ! D81   D(26,21,30,32)        151.5285         estimate D2E/DX2                !
 ! D82   D(26,21,30,33)        -91.6415         estimate D2E/DX2                !
 ! D83   D(21,22,24,16)         68.5408         estimate D2E/DX2                !
 ! D84   D(23,22,24,16)       -172.3911         estimate D2E/DX2                !
 ! D85   D(25,22,24,16)        -47.5817         estimate D2E/DX2                !
 ! D86   D(21,22,25,15)        -46.8825         estimate D2E/DX2                !
 ! D87   D(23,22,25,15)       -164.7477         estimate D2E/DX2                !
 ! D88   D(24,22,25,15)         70.4372         estimate D2E/DX2                !
 ! D89   D(21,30,31,7)         178.5297         estimate D2E/DX2                !
 ! D90   D(32,30,31,7)          61.1899         estimate D2E/DX2                !
 ! D91   D(33,30,31,7)         -61.1722         estimate D2E/DX2                !
 ! D92   D(21,30,32,15)         44.8394         estimate D2E/DX2                !
 ! D93   D(31,30,32,15)        163.9907         estimate D2E/DX2                !
 ! D94   D(33,30,32,15)        -72.0154         estimate D2E/DX2                !
 ! D95   D(21,30,33,16)        -78.6833         estimate D2E/DX2                !
 ! D96   D(31,30,33,16)        160.7869         estimate D2E/DX2                !
 ! D97   D(32,30,33,16)         36.4545         estimate D2E/DX2                !
 --------------------------------------------------------------------------------
 Trust Radius=3.00D-01 FncErr=1.00D-07 GrdErr=1.00D-06
 Number of steps in this run=    198 maximum allowed number of steps=    198.
 GradGradGradGradGradGradGradGradGradGradGradGradGradGradGradGradGradGrad

                          Input orientation:                          
 ---------------------------------------------------------------------
 Center     Atomic      Atomic             Coordinates (Angstroms)
 Number     Number       Type             X           Y           Z
 ---------------------------------------------------------------------
      1          6           0       -0.830462    2.767341    1.467064
      2          6           0       -2.758766    1.232918    2.805678
      3          6           0       -2.827105    2.581481    2.844913
      4          7           0       -1.894682    3.333304    2.205248
      5          1           0       -3.488417    0.612024    3.308292
      6          1           0       -3.606171    3.121150    3.372507
      7          8           0       -0.060366    3.524284    0.889207
      8          7           0       -0.747992    1.412102    1.450393
      9          6           0       -1.653705    0.663048    2.064058
     10          7           0       -1.518093   -0.663497    1.995075
     11          1           0       -0.766190   -1.091500    1.427487
     12          1           0       -2.234129   -1.266906    2.367489
     13          1           0       -1.933713    4.343122    2.205064
     14         15           0        0.008147   -2.392661   -0.890059
     15          8           0        0.172966   -1.527880   -2.105430
     16          8           0        0.473651   -1.938895    0.469871
     17          8           0       -1.564296   -2.801388   -0.732148
     18          8           0        0.755490   -3.808466   -1.224741
     19          1           0       -1.975478   -2.771963   -1.608996
     20          1           0        0.875289   -4.296673   -0.396506
     21         16           0        2.040207    0.439291   -2.086227
     22          6           0        2.898501   -1.057429   -1.516766
     23          1           0        3.971424   -0.890458   -1.627153
     24          1           0        2.617549   -1.247275   -0.478097
     25          1           0        2.546529   -1.876950   -2.139792
     26          6           0        3.328007    1.659585   -1.711418
     27          1           0        2.918170    2.650298   -1.913210
     28          1           0        3.618732    1.586915   -0.661354
     29          1           0        4.184648    1.477646   -2.362239
     30          6           0        0.864723    0.881382   -0.766019
     31          1           0        0.957059    1.947249   -0.545667
     32          1           0       -0.120858    0.623818   -1.141513
     33          1           0        1.075731    0.270798    0.109730
 ---------------------------------------------------------------------
                    Distance matrix (angstroms):
                    1          2          3          4          5
     1  C    0.000000
     2  C    2.804407   0.000000
     3  C    2.433022   1.350863   0.000000
     4  N    1.413433   2.349208   1.357874   0.000000
     5  H    3.885902   1.081906   2.128571   3.340967   0.000000
     6  H    3.385329   2.145882   1.084685   2.082474   2.512708
     7  O    1.224716   4.025491   3.516889   2.265646   5.107325
     8  N    1.357848   2.431484   2.763122   2.361296   3.406148
     9  C    2.337131   1.447726   2.380543   2.684822   2.217406
    10  N    3.538684   2.406810   3.600780   4.020001   2.689548
    11  H    3.859579   3.357482   4.443789   4.632202   3.721551
    12  H    4.365340   2.591597   3.922963   4.615569   2.447187
    13  H    2.060314   3.273350   2.076279   1.010572   4.189906
    14  P    5.734537   5.870188   6.835990   6.781472   6.235402
    15  O    5.676135   6.351066   7.098815   6.818227   6.877012
    16  O    4.984352   5.095578   6.080264   6.034618   5.501073
    17  O    6.032063   5.497144   6.585236   6.809691   5.628390
    18  O    7.280268   7.349138   8.380244   8.354227   7.622327
    19  H    6.438718   6.011818   7.015835   7.199255   6.157928
    20  H    7.502185   7.350967   8.457158   8.523990   7.540740
    21  S    5.127030   6.898603   7.252299   6.501955   7.726342
    22  C    6.118600   7.478896   8.065263   7.490429   8.176856
    23  H    6.783198   8.333917   8.847244   8.181605   9.070022
    24  H    5.638224   6.770473   7.439491   6.967228   7.421358
    25  H    6.781071   7.891458   8.579093   8.108667   8.502775
    26  C    5.350022   7.591772   7.713329   6.739294   8.529860
    27  H    5.048979   7.516946   7.460071   6.371165   8.512520
    28  H    5.071380   7.267607   7.404855   6.454844   8.198785
    29  H    6.440357   8.658999   8.803270   7.827110   9.580196
    30  C    3.378928   5.100026   5.436797   4.738635   5.968450
    31  H    2.814048   5.054615   5.120369   4.197750   6.033082
    32  H    3.450058   4.786426   5.200751   4.657099   5.580444
    33  H    3.421791   4.785100   5.296472   4.753261   5.583787
                    6          7          8          9         10
     6  H    0.000000
     7  O    4.347646   0.000000
     8  N    3.845069   2.291085   0.000000
     9  C    3.400945   3.479321   1.325889   0.000000
    10  N    4.536622   4.570057   2.279878   1.335242   0.000000
    11  H    5.440130   4.700361   2.503773   2.066723   1.034747
    12  H    4.706123   5.464985   3.197929   2.038059   1.007721
    13  H    2.377657   2.431338   3.250591   3.693404   5.028227
    14  P    7.850788   6.179055   4.530528   4.563542   3.693699
    15  O    8.118076   5.877640   4.704842   5.051883   4.518958
    16  O    7.118588   5.505210   3.699056   3.719836   2.814237
    17  O    7.489586   6.701099   4.814908   4.452985   3.465611
    18  O    9.390333   7.674869   6.055669   6.051021   5.042541
    19  H    7.886908   7.039275   5.326630   5.039262   4.200495
    20  H    9.450558   7.980970   6.215802   6.086790   4.964666
    21  S    8.298899   4.773133   4.607396   5.560568   5.525818
    22  C    9.147473   5.961182   5.310323   6.041930   5.656369
    23  H    9.925197   6.486705   6.086539   6.905107   6.580794
    24  H    8.523202   5.639905   4.703002   5.324988   4.853958
    25  H    9.655162   6.718933   5.878874   6.462655   5.923744
    26  C    8.721542   4.660625   5.164500   6.329673   6.528360
    27  H    8.409966   4.181993   5.127153   6.377293   6.777637
    28  H    8.415767   4.437725   4.853691   6.006662   6.205477
    29  H    9.812506   5.725450   6.234693   7.371705   7.489455
    30  C    6.490982   3.252767   2.791952   3.794665   3.960821
    31  H    6.128067   2.362426   2.679149   3.908443   4.404287
    32  H    6.225789   3.541213   2.780767   3.553427   3.667101
    33  H    6.378905   3.533196   2.534939   3.379805   3.339963
                   11         12         13         14         15
    11  H    0.000000
    12  H    1.751918   0.000000
    13  H    5.612740   5.620413   0.000000
    14  P    2.768328   4.111781   7.662988   0.000000
    15  O    3.681568   5.086179   7.582026   1.500713   0.000000
    16  O    1.781099   3.374107   6.947664   1.507318   2.625170
    17  O    2.867876   3.522934   7.733544   1.632351   2.554566
    18  O    4.090443   5.319912   9.243580   1.635554   2.513169
    19  H    3.675128   4.259640   8.072994   2.143714   2.531798
    20  H    4.036649   5.146614   9.450117   2.149603   3.328647
    21  S    4.750302   6.404424   7.031864   3.685110   2.712327
    22  C    4.701037   6.440125   8.146672   3.244958   2.827789
    23  H    5.640588   7.389707   8.771938   4.302033   3.881152
    24  H    3.886542   5.624635   7.691936   2.879340   2.950074
    25  H    4.931178   6.598669   8.811336   2.875965   2.399340
    26  C    5.846678   7.492609   7.087023   5.302528   4.502162
    27  H    6.223811   7.759836   6.585332   5.911557   5.003026
    28  H    5.546594   7.181516   6.829544   5.378258   4.864217
    29  H    6.743392   8.432295   8.155094   5.881305   5.019236
    30  C    3.370995   4.902744   5.351843   3.386512   2.842023
    31  H    4.012097   5.385253   4.654384   4.455767   3.888982
    32  H    3.155714   4.511524   5.321583   3.029689   2.375978
    33  H    2.642917   4.291524   5.480055   3.038639   2.992852
                   16         17         18         19         20
    16  O    0.000000
    17  O    2.518327   0.000000
    18  O    2.538984   2.576482   0.000000
    19  H    3.318723   0.968916   2.946214   0.000000
    20  H    2.543824   2.880991   0.968850   3.452788   0.000000
    21  S    3.826683   5.032690   4.520630   5.163877   5.161545
    22  C    3.256318   4.855263   3.499426   5.167572   3.980084
    23  H    4.210837   5.924262   4.361071   6.237470   4.764750
    24  H    2.444029   4.468516   3.253374   4.969859   3.512970
    25  H    3.333317   4.442401   2.788529   4.640187   3.418647
    26  C    5.084725   6.692823   6.062531   6.912023   6.574331
    27  H    5.719741   7.155997   6.845934   7.310352   7.398254
    28  H    4.858245   6.791612   6.133979   7.154930   6.497171
    29  H    5.784903   7.349672   6.402812   7.521549   6.939649
    30  C    3.103921   4.411811   4.713495   4.703646   5.191233
    31  H    4.045629   5.379736   5.799140   5.656978   6.246239
    32  H    3.085044   3.739402   4.518855   3.897369   5.075291
    33  H    2.318393   4.137249   4.303924   4.639212   4.599809
                   21         22         23         24         25
    21  S    0.000000
    22  C    1.816900   0.000000
    23  H    2.389264   1.091434   0.000000
    24  H    2.400815   1.092616   1.811250   0.000000
    25  H    2.371540   1.087962   1.807288   1.778416   0.000000
    26  C    1.813292   2.757631   2.631312   3.236613   3.647094
    27  H    2.385227   3.728913   3.705149   4.164252   4.548124
    28  H    2.416412   2.871066   2.682263   3.011409   3.915834
    29  H    2.398539   2.965738   2.488721   3.664831   3.739817
    30  C    1.822130   2.908412   3.678663   2.772450   3.510572
    31  H    2.412565   3.706794   4.278854   3.600941   4.437584
    32  H    2.365742   3.476195   4.390404   3.382304   3.790166
    33  H    2.404336   2.780677   3.570758   2.242162   3.440409
                   26         27         28         29         30
    26  C    0.000000
    27  H    1.090962   0.000000
    28  H    1.091987   1.785697   0.000000
    29  H    1.091102   1.783453   1.795887   0.000000
    30  C    2.750845   2.943086   2.844872   3.731669   0.000000
    31  H    2.657653   2.492069   2.688443   3.733335   1.092316
    32  H    3.645857   3.733340   3.891355   4.555939   1.085682
    33  H    3.212173   3.626140   2.965399   4.151202   1.088243
                   31         32         33
    31  H    0.000000
    32  H    1.807874   0.000000
    33  H    1.803917   1.766934   0.000000
 Symmetry turned off by external request.
 Stoichiometry    C7H16N3O5PS
 Framework group  C1[X(C7H16N3O5PS)]
 Deg. of freedom    93
 Full point group                 C1      NOp   1
 Rotational constants (GHZ):      0.4743393      0.2428151      0.1714441
 Standard basis: 6-31G(d) (6D, 7F)
   295 basis functions,   588 primitive gaussians,   295 cartesian basis functions
    75 alpha electrons       75 beta electrons
       nuclear repulsion energy      1621.9907670039 Hartrees.
 NAtoms=   33 NActive=   33 NUniq=   33 SFac= 1.00D+00 NAtFMM=   60 NAOKFM=F Big=F
 Integral buffers will be    131072 words long.
 Raffenetti 2 integral format.
 Two-electron integral symmetry is turned off.
 R6APFD:  NTU= -4 IXU= 1 FactS= 1.050
 Nuclear repulsion after empirical dispersion term =     1621.9559476332 Hartrees.
 One-electron integrals computed using PRISM.
 NBasis=   295 RedAO= T EigKep=  1.18D-03  NBF=   295
 NBsUse=   295 1.00D-06 EigRej= -1.00D+00 NBFU=   295
 ExpMin= 9.98D-02 ExpMax= 2.19D+04 ExpMxC= 3.30D+03 IAcc=2 IRadAn=         4 AccDes= 0.00D+00
 Harris functional with IExCor= 3731 and IRadAn=       4 diagonalized for initial guess.
 HarFok:  IExCor= 3731 AccDes= 0.00D+00 IRadAn=         4 IDoV= 1 UseB2=F ITyADJ=14
 ICtDFT=  3500011 ScaDFX=  1.000000  1.000000  1.000000  1.000000
 FoFCou: FMM=F IPFlag=           0 FMFlag=      100000 FMFlg1=           0
         NFxFlg=           0 DoJE=T BraDBF=F KetDBF=T FulRan=T
         wScrn=  0.000000 ICntrl=     500 IOpCl=  0 I1Cent=   200000004 NGrid=           0
         NMat0=    1 NMatS0=      1 NMatT0=    0 NMatD0=    1 NMtDS0=    0 NMtDT0=    0
 Symmetry not used in FoFCou.
 Keep R1 ints in memory in canonical form, NReq=966372831.
 Requested convergence on RMS density matrix=1.00D-08 within 128 cycles.
 Requested convergence on MAX density matrix=1.00D-06.
 Requested convergence on             energy=1.00D-06.
 No special actions if energy rises.
 Integral accuracy reduced to 1.0D-05 until final iterations.
 Initial convergence to 1.0D-05 achieved.  Increase integral accuracy.
 SCF Done:  E(RAPFD) =  -1555.54048242     A.U. after   15 cycles
            NFock= 15  Conv=0.62D-08     -V/T= 2.0061

 **********************************************************************

            Population analysis using the SCF density.

 **********************************************************************

 Alpha  occ. eigenvalues --  -89.06305 -77.24088 -19.17401 -19.17236 -19.13006
 Alpha  occ. eigenvalues --  -19.10585 -19.10315 -14.41532 -14.36523 -14.32949
 Alpha  occ. eigenvalues --  -10.31319 -10.29032 -10.27538 -10.26900 -10.25182
 Alpha  occ. eigenvalues --  -10.22575 -10.21479  -8.07451  -6.64788  -6.02051
 Alpha  occ. eigenvalues --   -6.01927  -6.01390  -4.79555  -4.79452  -4.79281
 Alpha  occ. eigenvalues --   -1.05058  -1.05010  -0.99790  -0.97548  -0.94966
 Alpha  occ. eigenvalues --   -0.94186  -0.91312  -0.89521  -0.87061  -0.78879
 Alpha  occ. eigenvalues --   -0.75555  -0.73794  -0.66555  -0.65045  -0.63554
 Alpha  occ. eigenvalues --   -0.57084  -0.57003  -0.55576  -0.52309  -0.51744
 Alpha  occ. eigenvalues --   -0.49583  -0.49419  -0.48711  -0.48362  -0.45451
 Alpha  occ. eigenvalues --   -0.45164  -0.44483  -0.43804  -0.43266  -0.42458
 Alpha  occ. eigenvalues --   -0.41475  -0.40692  -0.40136  -0.39644  -0.39311
 Alpha  occ. eigenvalues --   -0.38554  -0.37212  -0.34583  -0.33608  -0.33349
 Alpha  occ. eigenvalues --   -0.32706  -0.30313  -0.28144  -0.26375  -0.25622
 Alpha  occ. eigenvalues --   -0.25251  -0.24899  -0.23969  -0.23630  -0.22934
 Alpha virt. eigenvalues --   -0.01454   0.00989   0.02197   0.03768   0.06642
 Alpha virt. eigenvalues --    0.08228   0.08732   0.10006   0.11678   0.12231
 Alpha virt. eigenvalues --    0.13416   0.13533   0.13993   0.14768   0.15580
 Alpha virt. eigenvalues --    0.16454   0.16838   0.17999   0.18412   0.20893
 Alpha virt. eigenvalues --    0.21417   0.22923   0.23703   0.24461   0.24934
 Alpha virt. eigenvalues --    0.25995   0.26231   0.29364   0.32639   0.34320
 Alpha virt. eigenvalues --    0.34793   0.35674   0.36845   0.38746   0.39925
 Alpha virt. eigenvalues --    0.41412   0.41730   0.43809   0.44372   0.45676
 Alpha virt. eigenvalues --    0.46735   0.48116   0.50942   0.52178   0.53416
 Alpha virt. eigenvalues --    0.53652   0.56615   0.57067   0.58981   0.59335
 Alpha virt. eigenvalues --    0.59915   0.61168   0.62208   0.63233   0.65225
 Alpha virt. eigenvalues --    0.66207   0.66639   0.67010   0.68877   0.69542
 Alpha virt. eigenvalues --    0.70386   0.73029   0.75565   0.75979   0.77123
 Alpha virt. eigenvalues --    0.78443   0.78961   0.81203   0.81667   0.82333
 Alpha virt. eigenvalues --    0.83386   0.84440   0.84776   0.85305   0.85581
 Alpha virt. eigenvalues --    0.86766   0.87008   0.88483   0.89114   0.89656
 Alpha virt. eigenvalues --    0.90665   0.91540   0.92263   0.92959   0.93958
 Alpha virt. eigenvalues --    0.95090   0.95861   0.97520   0.98421   0.98983
 Alpha virt. eigenvalues --    0.99621   1.00165   1.01919   1.02900   1.03578
 Alpha virt. eigenvalues --    1.06309   1.06819   1.07524   1.08484   1.09255
 Alpha virt. eigenvalues --    1.10582   1.12421   1.13156   1.16591   1.19060
 Alpha virt. eigenvalues --    1.20379   1.21774   1.22388   1.23529   1.25579
 Alpha virt. eigenvalues --    1.27500   1.28667   1.30681   1.31369   1.32996
 Alpha virt. eigenvalues --    1.33997   1.34822   1.36891   1.37593   1.40451
 Alpha virt. eigenvalues --    1.41409   1.42161   1.43433   1.45851   1.46592
 Alpha virt. eigenvalues --    1.48388   1.49698   1.53676   1.56866   1.59740
 Alpha virt. eigenvalues --    1.62876   1.63596   1.65558   1.65906   1.67688
 Alpha virt. eigenvalues --    1.69966   1.73306   1.74405   1.75629   1.76176
 Alpha virt. eigenvalues --    1.77542   1.78290   1.79937   1.81028   1.81795
 Alpha virt. eigenvalues --    1.82856   1.84244   1.85300   1.86214   1.88868
 Alpha virt. eigenvalues --    1.89609   1.90889   1.92140   1.93237   1.94452
 Alpha virt. eigenvalues --    1.95771   1.97466   2.00355   2.04791   2.06754
 Alpha virt. eigenvalues --    2.07390   2.13752   2.14521   2.15511   2.16981
 Alpha virt. eigenvalues --    2.18979   2.20300   2.21283   2.21547   2.22103
 Alpha virt. eigenvalues --    2.22517   2.23395   2.23797   2.26645   2.28094
 Alpha virt. eigenvalues --    2.30119   2.31513   2.31782   2.32506   2.35787
 Alpha virt. eigenvalues --    2.36843   2.41402   2.44835   2.45810   2.47014
 Alpha virt. eigenvalues --    2.47677   2.57220   2.59515   2.63636   2.65641
 Alpha virt. eigenvalues --    2.68057   2.70566   2.71726   2.74541   2.76545
 Alpha virt. eigenvalues --    2.83068   2.87471   2.89144   2.91600   3.01922
 Alpha virt. eigenvalues --    3.06840   3.28291   3.45698   3.57565   3.72534
 Alpha virt. eigenvalues --    3.80305   3.89174   3.94055   3.97565   4.04429
 Alpha virt. eigenvalues --    4.05807   4.12649   4.18090   4.20098   4.26587
 Alpha virt. eigenvalues --    4.27859   4.32483   4.33858   4.56750   4.63619
          Condensed to atoms (all electrons):
               1          2          3          4          5          6
     1  C    4.154144  -0.024494  -0.034441   0.237150   0.000810   0.001849
     2  C   -0.024494   5.130753   0.605765  -0.034302   0.357559  -0.033445
     3  C   -0.034441   0.605765   4.743912   0.317467  -0.037956   0.372440
     4  N    0.237150  -0.034302   0.317467   7.135444   0.003359  -0.044333
     5  H    0.000810   0.357559  -0.037956   0.003359   0.523518  -0.003514
     6  H    0.001849  -0.033445   0.372440  -0.044333  -0.003514   0.511356
     7  O    0.583070   0.000586   0.002494  -0.104685   0.000006  -0.000114
     8  N    0.367720  -0.055094  -0.018241  -0.108290   0.003817  -0.000413
     9  C   -0.022234   0.415450  -0.035109  -0.020100  -0.023009   0.003195
    10  N    0.002856  -0.091870   0.003971   0.000129  -0.003242  -0.000132
    11  H   -0.000182   0.004604  -0.000044   0.000027  -0.000156   0.000002
    12  H   -0.000124  -0.001233   0.000205   0.000027   0.002908  -0.000003
    13  H   -0.006288   0.003442  -0.025849   0.290231  -0.000088  -0.005528
    14  P   -0.000008  -0.000049   0.000000  -0.000001   0.000000  -0.000000
    15  O   -0.000000  -0.000000   0.000000  -0.000000  -0.000000   0.000000
    16  O    0.000008  -0.000010   0.000000  -0.000000   0.000000  -0.000000
    17  O   -0.000000  -0.000002  -0.000000  -0.000000   0.000000   0.000000
    18  O    0.000000  -0.000000   0.000000  -0.000000   0.000000  -0.000000
    19  H    0.000000   0.000000   0.000000  -0.000000  -0.000000   0.000000
    20  H   -0.000000   0.000000  -0.000000   0.000000   0.000000   0.000000
    21  S    0.000229   0.000003  -0.000000   0.000005  -0.000000   0.000000
    22  C   -0.000001  -0.000000   0.000000  -0.000000   0.000000  -0.000000
    23  H    0.000000   0.000000  -0.000000   0.000000  -0.000000   0.000000
    24  H   -0.000000  -0.000000  -0.000000  -0.000000   0.000000  -0.000000
    25  H    0.000000  -0.000000   0.000000   0.000000  -0.000000  -0.000000
    26  C   -0.000011   0.000000   0.000000  -0.000000   0.000000  -0.000000
    27  H   -0.000003  -0.000000  -0.000000  -0.000000   0.000000   0.000000
    28  H    0.000000  -0.000000  -0.000000  -0.000000   0.000000  -0.000000
    29  H   -0.000000   0.000000   0.000000   0.000000  -0.000000  -0.000000
    30  C   -0.002834   0.000054   0.000006  -0.000057  -0.000000   0.000000
    31  H    0.001514  -0.000014  -0.000019   0.000327   0.000000   0.000000
    32  H    0.000116  -0.000005   0.000000   0.000008  -0.000000   0.000000
    33  H    0.000021   0.000045  -0.000001   0.000017  -0.000000   0.000000
               7          8          9         10         11         12
     1  C    0.583070   0.367720  -0.022234   0.002856  -0.000182  -0.000124
     2  C    0.000586  -0.055094   0.415450  -0.091870   0.004604  -0.001233
     3  C    0.002494  -0.018241  -0.035109   0.003971  -0.000044   0.000205
     4  N   -0.104685  -0.108290  -0.020100   0.000129   0.000027   0.000027
     5  H    0.000006   0.003817  -0.023009  -0.003242  -0.000156   0.002908
     6  H   -0.000114  -0.000413   0.003195  -0.000132   0.000002  -0.000003
     7  O    8.147545  -0.091303   0.000583  -0.000043  -0.000019   0.000001
     8  N   -0.091303   7.130756   0.465702  -0.089336   0.004572   0.003831
     9  C    0.000583   0.465702   4.335742   0.350261  -0.008523  -0.029559
    10  N   -0.000043  -0.089336   0.350261   7.183196   0.204037   0.318924
    11  H   -0.000019   0.004572  -0.008523   0.204037   0.266873  -0.010571
    12  H    0.000001   0.003831  -0.029559   0.318924  -0.010571   0.362519
    13  H    0.010466   0.005914   0.000593   0.000021  -0.000001  -0.000001
    14  P   -0.000003  -0.000026   0.000095   0.005969  -0.005494   0.000193
    15  O   -0.000000  -0.000003  -0.000001  -0.000006  -0.000485   0.000001
    16  O    0.000000  -0.000217  -0.000145  -0.034009   0.083095   0.000578
    17  O    0.000000  -0.000004   0.000087   0.000235   0.000429   0.000282
    18  O   -0.000000   0.000000  -0.000000  -0.000008   0.000045   0.000001
    19  H    0.000000   0.000000  -0.000001   0.000005  -0.000041  -0.000006
    20  H    0.000000   0.000000   0.000000   0.000001  -0.000014  -0.000000
    21  S    0.000241   0.002374   0.000046  -0.000042   0.000105   0.000000
    22  C   -0.000001  -0.000011   0.000000  -0.000003   0.000027   0.000000
    23  H    0.000000   0.000000   0.000000   0.000000  -0.000000  -0.000000
    24  H   -0.000000  -0.000053  -0.000003   0.000018  -0.000133  -0.000000
    25  H    0.000000   0.000000   0.000000  -0.000000   0.000011   0.000000
    26  C   -0.000052  -0.000014  -0.000000   0.000000  -0.000000  -0.000000
    27  H    0.000005  -0.000003  -0.000000   0.000000  -0.000000  -0.000000
    28  H    0.000006  -0.000019  -0.000000   0.000000  -0.000000  -0.000000
    29  H   -0.000000   0.000000   0.000000  -0.000000   0.000000  -0.000000
    30  C   -0.010139  -0.003130  -0.000443  -0.000198  -0.000564   0.000003
    31  H    0.028133  -0.007158   0.000223   0.000010  -0.000029   0.000001
    32  H   -0.000116   0.001374   0.000278   0.000002  -0.000274  -0.000001
    33  H   -0.000280   0.004056  -0.000326  -0.000006   0.001378   0.000007
              13         14         15         16         17         18
     1  C   -0.006288  -0.000008  -0.000000   0.000008  -0.000000   0.000000
     2  C    0.003442  -0.000049  -0.000000  -0.000010  -0.000002  -0.000000
     3  C   -0.025849   0.000000   0.000000   0.000000  -0.000000   0.000000
     4  N    0.290231  -0.000001  -0.000000  -0.000000  -0.000000  -0.000000
     5  H   -0.000088   0.000000  -0.000000   0.000000   0.000000   0.000000
     6  H   -0.005528  -0.000000   0.000000  -0.000000   0.000000  -0.000000
     7  O    0.010466  -0.000003  -0.000000   0.000000   0.000000  -0.000000
     8  N    0.005914  -0.000026  -0.000003  -0.000217  -0.000004   0.000000
     9  C    0.000593   0.000095  -0.000001  -0.000145   0.000087  -0.000000
    10  N    0.000021   0.005969  -0.000006  -0.034009   0.000235  -0.000008
    11  H   -0.000001  -0.005494  -0.000485   0.083095   0.000429   0.000045
    12  H   -0.000001   0.000193   0.000001   0.000578   0.000282   0.000001
    13  H    0.362758   0.000000   0.000000   0.000000   0.000000   0.000000
    14  P    0.000000  12.384583   0.470228   0.445987   0.287876   0.287042
    15  O    0.000000   0.470228   8.277862  -0.027877  -0.039857  -0.036298
    16  O    0.000000   0.445987  -0.027877   8.292851  -0.036387  -0.042212
    17  O    0.000000   0.287876  -0.039857  -0.036387   8.270310  -0.039019
    18  O    0.000000   0.287042  -0.036298  -0.042212  -0.039019   8.271825
    19  H   -0.000000  -0.003957   0.003684   0.001324   0.241406  -0.000566
    20  H   -0.000000  -0.003820   0.001546   0.002647  -0.000488   0.240415
    21  S   -0.000000  -0.009683   0.037251  -0.001673   0.000173   0.000189
    22  C    0.000000  -0.004240  -0.003713  -0.008625  -0.000034  -0.002455
    23  H   -0.000000   0.001389   0.001039   0.000095   0.000000  -0.000041
    24  H    0.000000  -0.000516  -0.005008   0.023241   0.000031  -0.000885
    25  H   -0.000000  -0.001084   0.008810  -0.001678  -0.000014   0.005277
    26  C    0.000000   0.000383   0.000720   0.000006   0.000000  -0.000000
    27  H    0.000000   0.000004   0.000001   0.000000   0.000000   0.000000
    28  H    0.000000  -0.000043  -0.000001  -0.000008  -0.000000  -0.000000
    29  H   -0.000000   0.000000   0.000001   0.000000   0.000000  -0.000000
    30  C    0.000001  -0.004847  -0.010288  -0.007843  -0.000243  -0.000081
    31  H   -0.000014   0.000660   0.000778   0.000240  -0.000002   0.000000
    32  H   -0.000000   0.001268   0.011995  -0.002032  -0.000174   0.000023
    33  H   -0.000000  -0.003145  -0.003083   0.019806   0.000031   0.000005
              19         20         21         22         23         24
     1  C    0.000000  -0.000000   0.000229  -0.000001   0.000000  -0.000000
     2  C    0.000000   0.000000   0.000003  -0.000000   0.000000  -0.000000
     3  C    0.000000  -0.000000  -0.000000   0.000000  -0.000000  -0.000000
     4  N   -0.000000   0.000000   0.000005  -0.000000   0.000000  -0.000000
     5  H   -0.000000   0.000000  -0.000000   0.000000  -0.000000   0.000000
     6  H    0.000000   0.000000   0.000000  -0.000000   0.000000  -0.000000
     7  O    0.000000   0.000000   0.000241  -0.000001   0.000000  -0.000000
     8  N    0.000000   0.000000   0.002374  -0.000011   0.000000  -0.000053
     9  C   -0.000001   0.000000   0.000046   0.000000   0.000000  -0.000003
    10  N    0.000005   0.000001  -0.000042  -0.000003   0.000000   0.000018
    11  H   -0.000041  -0.000014   0.000105   0.000027  -0.000000  -0.000133
    12  H   -0.000006  -0.000000   0.000000   0.000000  -0.000000  -0.000000
    13  H   -0.000000  -0.000000  -0.000000   0.000000  -0.000000   0.000000
    14  P   -0.003957  -0.003820  -0.009683  -0.004240   0.001389  -0.000516
    15  O    0.003684   0.001546   0.037251  -0.003713   0.001039  -0.005008
    16  O    0.001324   0.002647  -0.001673  -0.008625   0.000095   0.023241
    17  O    0.241406  -0.000488   0.000173  -0.000034   0.000000   0.000031
    18  O   -0.000566   0.240415   0.000189  -0.002455  -0.000041  -0.000885
    19  H    0.326075   0.000073   0.000002  -0.000001  -0.000000  -0.000004
    20  H    0.000073   0.331644  -0.000016   0.000078  -0.000002   0.000060
    21  S    0.000002  -0.000016  14.971828   0.243811  -0.039556  -0.028182
    22  C   -0.000001   0.000078   0.243811   5.508569   0.343955   0.347304
    23  H   -0.000000  -0.000002  -0.039556   0.343955   0.517972  -0.017458
    24  H   -0.000004   0.000060  -0.028182   0.347304  -0.017458   0.423973
    25  H    0.000001  -0.000085  -0.030051   0.361729  -0.019161  -0.018259
    26  C   -0.000000  -0.000000   0.218326  -0.034306  -0.002662  -0.001789
    27  H   -0.000000  -0.000000  -0.030225   0.002885   0.000253  -0.000075
    28  H    0.000000   0.000000  -0.030767  -0.004057   0.000494   0.001796
    29  H   -0.000000  -0.000000  -0.030837  -0.001672   0.002498  -0.000094
    30  C   -0.000008   0.000000   0.209869  -0.027546   0.001968  -0.005061
    31  H   -0.000000  -0.000000  -0.036050   0.001728  -0.000021   0.000170
    32  H    0.000036  -0.000002  -0.034956   0.001235  -0.000095   0.000007
    33  H   -0.000010   0.000005  -0.026582  -0.007452   0.000256   0.007986
              25         26         27         28         29         30
     1  C    0.000000  -0.000011  -0.000003   0.000000  -0.000000  -0.002834
     2  C   -0.000000   0.000000  -0.000000  -0.000000   0.000000   0.000054
     3  C    0.000000   0.000000  -0.000000  -0.000000   0.000000   0.000006
     4  N    0.000000  -0.000000  -0.000000  -0.000000   0.000000  -0.000057
     5  H   -0.000000   0.000000   0.000000   0.000000  -0.000000  -0.000000
     6  H   -0.000000  -0.000000   0.000000  -0.000000  -0.000000   0.000000
     7  O    0.000000  -0.000052   0.000005   0.000006  -0.000000  -0.010139
     8  N    0.000000  -0.000014  -0.000003  -0.000019   0.000000  -0.003130
     9  C    0.000000  -0.000000  -0.000000  -0.000000   0.000000  -0.000443
    10  N   -0.000000   0.000000   0.000000   0.000000  -0.000000  -0.000198
    11  H    0.000011  -0.000000  -0.000000  -0.000000   0.000000  -0.000564
    12  H    0.000000  -0.000000  -0.000000  -0.000000  -0.000000   0.000003
    13  H   -0.000000   0.000000   0.000000   0.000000  -0.000000   0.000001
    14  P   -0.001084   0.000383   0.000004  -0.000043   0.000000  -0.004847
    15  O    0.008810   0.000720   0.000001  -0.000001   0.000001  -0.010288
    16  O   -0.001678   0.000006   0.000000  -0.000008   0.000000  -0.007843
    17  O   -0.000014   0.000000   0.000000  -0.000000   0.000000  -0.000243
    18  O    0.005277  -0.000000   0.000000  -0.000000  -0.000000  -0.000081
    19  H    0.000001  -0.000000  -0.000000   0.000000  -0.000000  -0.000008
    20  H   -0.000085  -0.000000  -0.000000   0.000000  -0.000000   0.000000
    21  S   -0.030051   0.218326  -0.030225  -0.030767  -0.030837   0.209869
    22  C    0.361729  -0.034306   0.002885  -0.004057  -0.001672  -0.027546
    23  H   -0.019161  -0.002662   0.000253   0.000494   0.002498   0.001968
    24  H   -0.018259  -0.001789  -0.000075   0.001796  -0.000094  -0.005061
    25  H    0.403621   0.002297  -0.000055  -0.000023   0.000016   0.001260
    26  C    0.002297   5.475892   0.369100   0.361565   0.363747  -0.035995
    27  H   -0.000055   0.369100   0.449629  -0.020816  -0.017858  -0.001295
    28  H   -0.000023   0.361565  -0.020816   0.474686  -0.023279  -0.002803
    29  H    0.000016   0.363747  -0.017858  -0.023279   0.478152   0.002950
    30  C    0.001260  -0.035995  -0.001295  -0.002803   0.002950   5.542876
    31  H   -0.000066  -0.001940   0.002094   0.000231   0.000254   0.329724
    32  H   -0.000013   0.002386   0.000035  -0.000010  -0.000063   0.366147
    33  H   -0.000111  -0.001938  -0.000082   0.001819  -0.000081   0.353194
              31         32         33
     1  C    0.001514   0.000116   0.000021
     2  C   -0.000014  -0.000005   0.000045
     3  C   -0.000019   0.000000  -0.000001
     4  N    0.000327   0.000008   0.000017
     5  H    0.000000  -0.000000  -0.000000
     6  H    0.000000   0.000000   0.000000
     7  O    0.028133  -0.000116  -0.000280
     8  N   -0.007158   0.001374   0.004056
     9  C    0.000223   0.000278  -0.000326
    10  N    0.000010   0.000002  -0.000006
    11  H   -0.000029  -0.000274   0.001378
    12  H    0.000001  -0.000001   0.000007
    13  H   -0.000014  -0.000000  -0.000000
    14  P    0.000660   0.001268  -0.003145
    15  O    0.000778   0.011995  -0.003083
    16  O    0.000240  -0.002032   0.019806
    17  O   -0.000002  -0.000174   0.000031
    18  O    0.000000   0.000023   0.000005
    19  H   -0.000000   0.000036  -0.000010
    20  H   -0.000000  -0.000002   0.000005
    21  S   -0.036050  -0.034956  -0.026582
    22  C    0.001728   0.001235  -0.007452
    23  H   -0.000021  -0.000095   0.000256
    24  H    0.000170   0.000007   0.007986
    25  H   -0.000066  -0.000013  -0.000111
    26  C   -0.001940   0.002386  -0.001938
    27  H    0.002094   0.000035  -0.000082
    28  H    0.000231  -0.000010   0.001819
    29  H    0.000254  -0.000063  -0.000081
    30  C    0.329724   0.366147   0.353194
    31  H    0.454321  -0.016005  -0.012132
    32  H   -0.016005   0.418272  -0.015760
    33  H   -0.012132  -0.015760   0.402574
 Mulliken charges:
               1
     1  C    0.741133
     2  C   -0.277743
     3  C    0.105400
     4  N   -0.672423
     5  H    0.175987
     6  H    0.198639
     7  O   -0.566380
     8  N   -0.616802
     9  C    0.567197
    10  N   -0.850741
    11  H    0.461325
    12  H    0.352017
    13  H    0.364343
    14  P    1.151241
    15  O   -0.687295
    16  O   -0.707163
    17  O   -0.684636
    18  O   -0.683257
    19  H    0.431986
    20  H    0.427957
    21  S    0.614166
    22  C   -0.717207
    23  H    0.209078
    24  H    0.272935
    25  H    0.287578
    26  C   -0.715714
    27  H    0.246405
    28  H    0.241227
    29  H    0.226265
    30  C   -0.694678
    31  H    0.253043
    32  H    0.266325
    33  H    0.279791
 Sum of Mulliken charges =  -0.00000
 Mulliken charges with hydrogens summed into heavy atoms:
               1
     1  C    0.741133
     2  C   -0.101755
     3  C    0.304039
     4  N   -0.308080
     7  O   -0.566380
     8  N   -0.616802
     9  C    0.567197
    10  N   -0.037399
    14  P    1.151241
    15  O   -0.687295
    16  O   -0.707163
    17  O   -0.252649
    18  O   -0.255300
    21  S    0.614166
    22  C    0.052384
    26  C   -0.001818
    30  C    0.104481
 Electronic spatial extent (au):  <R**2>=           6086.7592
 Charge=             -0.0000 electrons
 Dipole moment (field-independent basis, Debye):
    X=              0.9045    Y=              3.1523    Z=              1.2137  Tot=              3.4968
 Quadrupole moment (field-independent basis, Debye-Ang):
   XX=            -78.6608   YY=           -112.2982   ZZ=           -106.5953
   XY=             -4.3152   XZ=            -20.4032   YZ=             -2.6288
 Traceless Quadrupole moment (field-independent basis, Debye-Ang):
   XX=             20.5239   YY=            -13.1134   ZZ=             -7.4105
   XY=             -4.3152   XZ=            -20.4032   YZ=             -2.6288
 Octapole moment (field-independent basis, Debye-Ang**2):
  XXX=             19.7146  YYY=            -17.9976  ZZZ=             15.3801  XYY=            -42.0717
  XXY=             20.8391  XXZ=             -6.3470  XZZ=            -34.5957  YZZ=             28.7391
  YYZ=             38.8984  XYZ=            -46.3896
 Hexadecapole moment (field-independent basis, Debye-Ang**3):
 XXXX=          -1996.6070 YYYY=          -2996.8299 ZZZZ=          -2161.1681 XXXY=            222.2555
 XXXZ=            644.5559 YYYX=             28.5974 YYYZ=           -560.0773 ZZZX=            765.8017
 ZZZY=           -597.9663 XXYY=           -753.9813 XXZZ=           -527.5816 YYZZ=           -794.2926
 XXYZ=           -129.3701 YYXZ=            175.4795 ZZXY=             53.4562
 N-N= 1.621955947633D+03 E-N=-6.913270120658D+03  KE= 1.546180460035D+03
 R6APFD:  NTU= -4 IXU= 1 FactS= 1.050
 Calling FoFJK, ICntrl=      2127 FMM=F ISym2X=0 I1Cent= 0 IOpClX= 0 NMat=1 NMatS=1 NMatT=0.
 -------------------------------------------------------------------
 Center     Atomic                   Forces (Hartrees/Bohr)
 Number     Number              X              Y              Z
 -------------------------------------------------------------------
      1        6          -0.002201715   -0.004835071    0.001714229
      2        6           0.002747851   -0.003449540   -0.001932669
      3        6           0.000805919    0.003736494   -0.000597577
      4        7          -0.002203278    0.000001912    0.001627131
      5        1          -0.001079343   -0.000502734    0.000740764
      6        1          -0.000614988    0.000536918    0.000402726
      7        8           0.004922126    0.004533447   -0.003673725
      8        7          -0.000166752    0.001509152    0.000456523
      9        6          -0.002713210   -0.000236549    0.001788523
     10        7           0.000492743   -0.000458806    0.000250388
     11        1           0.000287541   -0.001238840   -0.000652685
     12        1           0.000756714    0.000219186   -0.000611190
     13        1          -0.000344485   -0.000342619    0.000230419
     14       15          -0.001030892   -0.001517322    0.001144976
     15        8           0.000039183    0.002361274   -0.004807924
     16        8           0.000030164    0.001713537    0.004911251
     17        8          -0.004260536   -0.000624888    0.000013748
     18        8           0.002043114   -0.003632352   -0.000911300
     19        1           0.001023938    0.000050506    0.000813186
     20        1          -0.000402280    0.001078793   -0.000670515
     21       16          -0.001420692   -0.002050626    0.001411329
     22        6          -0.000012867    0.000987436   -0.000861595
     23        1           0.001060067   -0.000257375    0.000112021
     24        1           0.000569217   -0.000690366   -0.000091765
     25        1           0.000420351   -0.000236788    0.000106039
     26        6          -0.000105211    0.000053235   -0.000575504
     27        1          -0.000013612    0.000850765   -0.000123977
     28        1           0.000705948    0.000565223    0.000825274
     29        1           0.001037808    0.000295599   -0.000465437
     30        6           0.000660102    0.000238052   -0.001482944
     31        1          -0.000465056    0.000488471    0.000584340
     32        1           0.000287695    0.000384949    0.000209857
     33        1          -0.000855566    0.000468928    0.000116084
 -------------------------------------------------------------------
 Cartesian Forces:  Max     0.004922126 RMS     0.001670903

 GradGradGradGradGradGradGradGradGradGradGradGradGradGradGradGradGradGrad
 Berny optimization.
 FormGI is forming the generalized inverse of G from B-inverse, IUseBI=4.
 Internal  Forces:  Max     0.007514169 RMS     0.000977711
 Search for a local minimum.
 Step number   1 out of a maximum of  198
 All quantities printed in internal units (Hartrees-Bohrs-Radians)
 Mixed Optimization -- En-DIIS/RFO-DIIS
 Second derivative matrix not updated -- first step.
 ITU=  0
     Eigenvalues ---    0.00230   0.00550   0.00818   0.00900   0.01149
     Eigenvalues ---    0.01404   0.01573   0.01750   0.01875   0.01935
     Eigenvalues ---    0.02101   0.02198   0.02234   0.02253   0.02375
     Eigenvalues ---    0.02465   0.02534   0.02565   0.02943   0.02956
     Eigenvalues ---    0.02985   0.03109   0.03207   0.03982   0.04037
     Eigenvalues ---    0.05048   0.05175   0.05602   0.05930   0.06392
     Eigenvalues ---    0.06679   0.07183   0.07212   0.07490   0.07812
     Eigenvalues ---    0.08050   0.09150   0.09458   0.09803   0.10486
     Eigenvalues ---    0.11980   0.12194   0.12901   0.13775   0.14629
     Eigenvalues ---    0.15766   0.15993   0.16000   0.16000   0.16000
     Eigenvalues ---    0.16000   0.16000   0.16000   0.16000   0.16019
     Eigenvalues ---    0.17410   0.20453   0.21417   0.22170   0.22268
     Eigenvalues ---    0.23289   0.24229   0.24620   0.25097   0.28914
     Eigenvalues ---    0.32798   0.33107   0.33457   0.34093   0.34584
     Eigenvalues ---    0.34647   0.34686   0.34702   0.35434   0.35765
     Eigenvalues ---    0.37168   0.41498   0.42328   0.44915   0.45439
     Eigenvalues ---    0.45877   0.46356   0.47170   0.52187   0.53599
     Eigenvalues ---    0.53613   0.54047   0.56427   0.58388   0.65847
     Eigenvalues ---    0.71613   0.913451000.000001000.000001000.00000
     Eigenvalues --- 1000.000001000.000001000.000001000.000001000.00000
     Eigenvalues --- 1000.000001000.000001000.000001000.000001000.00000
     Eigenvalues --- 1000.000001000.000001000.000001000.000001000.00000
     Eigenvalues --- 1000.000001000.000001000.000001000.000001000.00000
     Eigenvalues --- 1000.000001000.000001000.000001000.000001000.00000
     Eigenvalues --- 1000.000001000.000001000.000001000.000001000.00000
     Eigenvalues --- 1000.000001000.000001000.000001000.000001000.00000
     Eigenvalues --- 1000.000001000.000001000.000001000.000001000.00000
     Eigenvalues --- 1000.000001000.000001000.000001000.000001000.00000
     Eigenvalues --- 1000.000001000.000001000.000001000.000001000.00000
     Eigenvalues --- 1000.000001000.000001000.000001000.000001000.00000
     Eigenvalues --- 1000.000001000.000001000.000001000.000001000.00000
     Eigenvalues --- 1000.000001000.000001000.000001000.000001000.00000
     Eigenvalues --- 1000.000001000.000001000.000001000.000001000.00000
     Eigenvalues --- 1000.000001000.000001000.000001000.000001000.00000
     Eigenvalues --- 1000.000001000.000001000.000001000.000001000.00000
     Eigenvalues --- 1000.000001000.000001000.000001000.000001000.00000
     Eigenvalues --- 1000.000001000.000001000.000001000.000001000.00000
     Eigenvalues --- 1000.000001000.000001000.000001000.000001000.00000
     Eigenvalues --- 1000.000001000.000001000.000001000.000001000.00000
     Eigenvalues --- 1000.000001000.000001000.000001000.000001000.00000
 RFO step:  Lambda=-6.44017657D-04 EMin= 2.30000000D-03
 Linear search not attempted -- first point.
 Iteration  1 RMS(Cart)=  0.02005971 RMS(Int)=  0.00018681
 Iteration  2 RMS(Cart)=  0.00029079 RMS(Int)=  0.00004921
 Iteration  3 RMS(Cart)=  0.00000006 RMS(Int)=  0.00004921
 Iteration  1 RMS(Cart)=  0.00004418 RMS(Int)=  0.00003345
 Iteration  2 RMS(Cart)=  0.00003415 RMS(Int)=  0.00003626
 Iteration  3 RMS(Cart)=  0.00002640 RMS(Int)=  0.00004166
 Iteration  4 RMS(Cart)=  0.00002041 RMS(Int)=  0.00004713
 Iteration  5 RMS(Cart)=  0.00001578 RMS(Int)=  0.00005190
 Iteration  6 RMS(Cart)=  0.00001220 RMS(Int)=  0.00005582
 Iteration  7 RMS(Cart)=  0.00000943 RMS(Int)=  0.00005896
 Iteration  8 RMS(Cart)=  0.00000729 RMS(Int)=  0.00006144
 Iteration  9 RMS(Cart)=  0.00000563 RMS(Int)=  0.00006339
 Iteration 10 RMS(Cart)=  0.00000435 RMS(Int)=  0.00006492
 Iteration 11 RMS(Cart)=  0.00000337 RMS(Int)=  0.00006610
 Iteration 12 RMS(Cart)=  0.00000260 RMS(Int)=  0.00006703
 Iteration 13 RMS(Cart)=  0.00000201 RMS(Int)=  0.00006774
 Iteration 14 RMS(Cart)=  0.00000156 RMS(Int)=  0.00006830
 Iteration 15 RMS(Cart)=  0.00000120 RMS(Int)=  0.00006873
 Iteration 16 RMS(Cart)=  0.00000093 RMS(Int)=  0.00006906
 Variable       Old X    -DE/DX   Delta X   Delta X   Delta X     New X
                                 (Linear)    (Quad)   (Total)
    R1        2.67100   0.00241   0.00000   0.00554   0.00553   2.67653
    R2        2.31438   0.00751   0.00000   0.00837   0.00832   2.32270
    R3        2.56596  -0.00043   0.00000  -0.00041  -0.00055   2.56541
    R4        2.55276   0.00367   0.00000   0.00674   0.00678   2.55954
    R5        2.04451   0.00136   0.00000   0.00379   0.00379   2.04830
    R6        2.73581  -0.00166   0.00000  -0.00430  -0.00429   2.73152
    R7        2.56601  -0.00088   0.00000  -0.00159  -0.00157   2.56444
    R8        2.04976   0.00090   0.00000   0.00255   0.00255   2.05231
    R9        1.90970  -0.00033   0.00000  -0.00071  -0.00071   1.90899
   R10        4.46434   0.00037   0.00000   0.01209   0.01213   4.47647
   R11        2.50557   0.00113   0.00000   0.00233   0.00236   2.50792
   R12        2.52324   0.00075   0.00000   0.00179   0.00195   2.52519
   R13        1.95539  -0.00003   0.00000  -0.00012  -0.00002   1.95537
   R14        1.90432  -0.00090   0.00000  -0.00193  -0.00193   1.90239
   R15        3.36579  -0.00113   0.00000  -0.01767  -0.01756   3.34822
   R16        2.83594   0.00471   0.00000   0.00710   0.00701   2.84295
   R17        2.84842   0.00407   0.00000   0.00629   0.00624   2.85466
   R18        3.08470   0.00334   0.00000   0.00735   0.00735   3.09205
   R19        3.09075   0.00328   0.00000   0.00730   0.00730   3.09805
   R20        4.53410   0.00082   0.00000   0.03697   0.03689   4.57099
   R21        4.48995   0.00057   0.00000   0.01818   0.01809   4.50804
   R22        4.61855   0.00101   0.00000   0.03675   0.03687   4.65542
   R23        4.38113   0.00100   0.00000   0.01610   0.01590   4.39703
   R24        1.83099  -0.00117   0.00000  -0.00218  -0.00218   1.82880
   R25        1.83086  -0.00116   0.00000  -0.00217  -0.00217   1.82869
   R26        3.43344   0.00018   0.00000   0.00100   0.00121   3.43466
   R27        3.42663   0.00226   0.00000   0.00899   0.00899   3.43562
   R28        3.44333   0.00019   0.00000   0.00046   0.00042   3.44375
   R29        2.06251   0.00099   0.00000   0.00285   0.00285   2.06536
   R30        2.06474   0.00070   0.00000   0.00097   0.00115   2.06589
   R31        2.05595   0.00054   0.00000   0.00123   0.00126   2.05721
   R32        2.06162   0.00080   0.00000   0.00230   0.00230   2.06392
   R33        2.06356   0.00094   0.00000   0.00272   0.00272   2.06627
   R34        2.06188   0.00104   0.00000   0.00300   0.00300   2.06489
   R35        2.06418   0.00094   0.00000   0.00198   0.00205   2.06622
   R36        2.05164  -0.00001   0.00000  -0.00032  -0.00026   2.05138
   R37        2.05648   0.00059   0.00000  -0.00008  -0.00037   2.05611
    A1        2.06278   0.00124   0.00000   0.00411   0.00424   2.06702
    A2        2.03957  -0.00106   0.00000  -0.00487  -0.00489   2.03468
    A3        2.18082  -0.00018   0.00000   0.00077   0.00066   2.18148
    A4        2.12386  -0.00033   0.00000  -0.00227  -0.00227   2.12160
    A5        2.03360  -0.00005   0.00000   0.00020   0.00020   2.03379
    A6        2.12570   0.00037   0.00000   0.00207   0.00207   2.12778
    A7        2.09938  -0.00002   0.00000   0.00047   0.00048   2.09987
    A8        2.14975   0.00012   0.00000   0.00042   0.00041   2.15017
    A9        2.03405  -0.00010   0.00000  -0.00089  -0.00090   2.03315
   A10        2.14284   0.00006   0.00000   0.00069   0.00066   2.14349
   A11        2.01430   0.00037   0.00000   0.00216   0.00217   2.01647
   A12        2.12566  -0.00043   0.00000  -0.00287  -0.00285   2.12281
   A13        1.71610   0.00007   0.00000   0.00232   0.00226   1.71836
   A14        2.11377   0.00157   0.00000   0.00603   0.00616   2.11994
   A15        2.13664  -0.00051   0.00000  -0.00255  -0.00264   2.13400
   A16        2.08870   0.00098   0.00000   0.00325   0.00324   2.09194
   A17        2.05779  -0.00048   0.00000  -0.00068  -0.00058   2.05721
   A18        2.10956   0.00082   0.00000   0.00448   0.00458   2.11414
   A19        2.09859  -0.00002   0.00000  -0.00072  -0.00079   2.09780
   A20        2.06163  -0.00082   0.00000  -0.00549  -0.00556   2.05607
   A21        2.12149  -0.00069   0.00000  -0.00109  -0.00114   2.12035
   A22        1.90544   0.00048   0.00000   0.00104   0.00105   1.90648
   A23        1.85763  -0.00040   0.00000  -0.00346  -0.00344   1.85419
   A24        1.86042  -0.00003   0.00000  -0.00061  -0.00061   1.85981
   A25        1.87979   0.00065   0.00000   0.00260   0.00263   1.88242
   A26        1.81647   0.00010   0.00000   0.00211   0.00210   1.81857
   A27        1.60721  -0.00044   0.00000   0.00182   0.00191   1.60913
   A28        1.75149  -0.00014   0.00000  -0.00059  -0.00072   1.75077
   A29        1.83371  -0.00031   0.00000  -0.00483  -0.00492   1.82879
   A30        1.99690  -0.00012   0.00000   0.00032   0.00019   1.99710
   A31        2.32476   0.00047   0.00000   0.00071   0.00066   2.32541
   A32        1.38048   0.00041   0.00000  -0.00171  -0.00177   1.37871
   A33        1.57695  -0.00018   0.00000   0.00138   0.00143   1.57838
   A34        1.79977  -0.00028   0.00000   0.00072   0.00088   1.80065
   A35        0.97910   0.00008   0.00000   0.00315   0.00308   0.98218
   A36        1.88983  -0.00106   0.00000  -0.00662  -0.00662   1.88321
   A37        1.89417  -0.00118   0.00000  -0.00734  -0.00734   1.88683
   A38        1.72551   0.00054   0.00000   0.01158   0.01151   1.73703
   A39        1.85202   0.00046   0.00000   0.00886   0.00858   1.86059
   A40        1.71643   0.00044   0.00000   0.01050   0.01037   1.72679
   A41        1.88248   0.00053   0.00000   0.00749   0.00746   1.88994
   A42        1.89612  -0.00015   0.00000   0.00123   0.00115   1.89727
   A43        1.86315  -0.00031   0.00000  -0.00441  -0.00433   1.85882
   A44        1.95574  -0.00017   0.00000   0.00146   0.00149   1.95722
   A45        1.95557  -0.00012   0.00000   0.00113   0.00109   1.95665
   A46        1.90743   0.00022   0.00000  -0.00693  -0.00694   1.90049
   A47        2.26979   0.00060   0.00000  -0.00113  -0.00128   2.26852
   A48        1.77445   0.00046   0.00000  -0.00060  -0.00059   1.77386
   A49        1.88189   0.00012   0.00000   0.00016   0.00016   1.88205
   A50        1.92097   0.00103   0.00000   0.00691   0.00690   1.92787
   A51        1.89872   0.00054   0.00000   0.00345   0.00344   1.90216
   A52        1.91592  -0.00056   0.00000  -0.00353  -0.00353   1.91239
   A53        1.91350  -0.00050   0.00000  -0.00419  -0.00419   1.90931
   A54        1.93206  -0.00061   0.00000  -0.00270  -0.00272   1.92935
   A55        3.03145  -0.00038   0.00000   0.00000  -0.00001   3.03144
   A56        1.90538   0.00048   0.00000   0.01178   0.01164   1.91702
   A57        1.85197  -0.00023   0.00000  -0.00502  -0.00512   1.84685
   A58        1.89848  -0.00013   0.00000   0.00348   0.00373   1.90221
   A59        1.95843  -0.00020   0.00000  -0.00381  -0.00395   1.95449
   A60        1.94847  -0.00009   0.00000  -0.00182  -0.00176   1.94671
   A61        1.89783   0.00015   0.00000  -0.00454  -0.00456   1.89328
   A62        2.40016   0.00085   0.00000  -0.00104  -0.00088   2.39928
   A63        1.81614   0.00057   0.00000   0.00044   0.00054   1.81668
   A64        2.22613   0.00075   0.00000   0.00105   0.00088   2.22701
   A65        3.21100   0.00069   0.00000   0.00481   0.00477   3.21576
   A66        3.15186   0.00001   0.00000  -0.00593  -0.00578   3.14608
    D1        3.10322   0.00002   0.00000  -0.00033  -0.00028   3.10294
    D2       -0.00872   0.00004   0.00000   0.00053   0.00057  -0.00816
    D3       -0.03261  -0.00002   0.00000  -0.00087  -0.00083  -0.03344
    D4        3.13863   0.00000   0.00000  -0.00000   0.00002   3.13865
    D5       -2.87100   0.00000   0.00000  -0.00061  -0.00067  -2.87167
    D6        0.26432   0.00004   0.00000  -0.00004  -0.00009   0.26423
    D7        0.03779   0.00006   0.00000   0.00113   0.00104   0.03883
    D8       -3.09761   0.00001   0.00000   0.00054   0.00044  -3.09717
    D9        3.13991   0.00002   0.00000   0.00052   0.00047   3.14038
   D10       -0.00214   0.00001   0.00000   0.00020   0.00019  -0.00195
   D11        0.00543   0.00000   0.00000   0.00000  -0.00002   0.00541
   D12       -3.13662  -0.00000   0.00000  -0.00032  -0.00031  -3.13692
   D13        0.00023  -0.00000   0.00000   0.00015   0.00011   0.00034
   D14        3.13038   0.00006   0.00000   0.00255   0.00249   3.13287
   D15       -3.13424  -0.00001   0.00000  -0.00035  -0.00037  -3.13460
   D16       -0.00409   0.00005   0.00000   0.00205   0.00201  -0.00208
   D17        0.01103   0.00001   0.00000   0.00042   0.00045   0.01148
   D18        3.12111   0.00001   0.00000  -0.00041  -0.00036   3.12075
   D19       -3.13014   0.00002   0.00000   0.00072   0.00071  -3.12942
   D20       -0.02005   0.00001   0.00000  -0.00011  -0.00010  -0.02015
   D21        0.03345   0.00040   0.00000   0.00516   0.00496   0.03840
   D22       -0.02310  -0.00006   0.00000  -0.00085  -0.00076  -0.02387
   D23        3.12974  -0.00013   0.00000  -0.00324  -0.00311   3.12662
   D24        3.08228  -0.00022   0.00000  -0.00991  -0.00985   3.07242
   D25        0.11916  -0.00002   0.00000   0.00208   0.00209   0.12125
   D26       -0.07024  -0.00016   0.00000  -0.00763  -0.00760  -0.07784
   D27       -3.03336   0.00004   0.00000   0.00436   0.00434  -3.02902
   D28       -1.68974   0.00000   0.00000   0.00272   0.00277  -1.68697
   D29        0.34718   0.00020   0.00000   0.00976   0.00964   0.35682
   D30        0.05987  -0.00001   0.00000   0.00335   0.00357   0.06343
   D31        1.27277  -0.00012   0.00000  -0.00429  -0.00429   1.26848
   D32       -2.97350   0.00008   0.00000   0.00274   0.00258  -2.97092
   D33        3.02237  -0.00014   0.00000  -0.00366  -0.00350   3.01888
   D34        1.25084  -0.00027   0.00000  -0.00425  -0.00426   1.24658
   D35       -0.59442   0.00015   0.00000   0.00037   0.00044  -0.59398
   D36       -2.85705  -0.00042   0.00000  -0.00504  -0.00508  -2.86213
   D37        1.58087  -0.00000   0.00000  -0.00042  -0.00037   1.58050
   D38       -0.90614  -0.00028   0.00000  -0.00383  -0.00387  -0.91001
   D39       -2.75140   0.00014   0.00000   0.00078   0.00083  -2.75057
   D40        1.59842   0.00051   0.00000   0.00188   0.00182   1.60024
   D41       -0.82736   0.00012   0.00000  -0.00012  -0.00009  -0.82745
   D42        0.13535   0.00019   0.00000   0.00342   0.00338   0.13872
   D43       -0.59745   0.00041   0.00000   0.00188   0.00184  -0.59561
   D44       -3.02322   0.00002   0.00000  -0.00013  -0.00007  -3.02329
   D45       -2.06052   0.00009   0.00000   0.00342   0.00340  -2.05712
   D46       -2.53815   0.00001   0.00000  -0.00140  -0.00144  -2.53959
   D47        1.31926  -0.00038   0.00000  -0.00340  -0.00335   1.31591
   D48        2.28197  -0.00030   0.00000   0.00014   0.00012   2.28208
   D49        0.45197   0.00016   0.00000   0.00100   0.00103   0.45300
   D50        2.77287  -0.00040   0.00000  -0.00010  -0.00013   2.77274
   D51       -1.52597   0.00037   0.00000   0.00348   0.00348  -1.52249
   D52        2.88309  -0.00039   0.00000  -0.00142  -0.00144   2.88165
   D53        0.58231   0.00031   0.00000   0.00057   0.00058   0.58289
   D54       -1.38815   0.00003   0.00000  -0.00076  -0.00076  -1.38891
   D55       -1.56922   0.00004   0.00000  -0.00392  -0.00390  -1.57312
   D56        0.19889  -0.00026   0.00000  -0.00446  -0.00456   0.19433
   D57        1.47914  -0.00029   0.00000   0.00236   0.00238   1.48152
   D58       -0.17927   0.00028   0.00000   0.00160   0.00158  -0.17769
   D59       -1.87468   0.00040   0.00000   0.00664   0.00688  -1.86780
   D60        0.30601   0.00033   0.00000   0.00919   0.00926   0.31528
   D61       -1.53749   0.00057   0.00000   0.00983   0.00973  -1.52776
   D62       -1.75949  -0.00046   0.00000  -0.00842  -0.00828  -1.76777
   D63        0.20902  -0.00048   0.00000  -0.00847  -0.00848   0.20054
   D64        1.63024  -0.00047   0.00000  -0.00620  -0.00628   1.62396
   D65       -0.49524   0.00053   0.00000   0.02875   0.02878  -0.46646
   D66        1.62830   0.00055   0.00000   0.03569   0.03575   1.66404
   D67       -2.59982   0.00056   0.00000   0.02581   0.02587  -2.57395
   D68       -2.26529  -0.00022   0.00000   0.01188   0.01193  -2.25336
   D69       -0.14175  -0.00020   0.00000   0.01882   0.01889  -0.12286
   D70        1.91332  -0.00019   0.00000   0.00894   0.00902   1.92234
   D71       -3.04613  -0.00043   0.00000  -0.01290  -0.01284  -3.05898
   D72       -0.95662  -0.00043   0.00000  -0.01307  -0.01303  -0.96965
   D73        1.16305  -0.00020   0.00000  -0.00990  -0.00984   1.15321
   D74       -1.16355   0.00025   0.00000   0.00084   0.00078  -1.16277
   D75        0.92596   0.00024   0.00000   0.00066   0.00060   0.92656
   D76        3.04564   0.00048   0.00000   0.00383   0.00378   3.04942
   D77        2.30731   0.00024   0.00000  -0.01301  -0.01279   2.29452
   D78       -1.86178   0.00014   0.00000  -0.01401  -0.01413  -1.87591
   D79        0.17729   0.00013   0.00000  -0.02023  -0.02030   0.15699
[...]
 3422,-0.00001116,-0.01326641,-0.00788507,-0.02100089,0.00036932,0.0022
 4186,0.00098224,0.00033499,-0.00014042,0.00039347,0.00027860,-0.000625
 24,0.00018818,-0.00028168,0.00028618,-0.00013684,-0.07367527,0.0044465
 2,-0.08254600,-0.00374015,-0.00078035,-0.01188795,0.07879305,0.0001602
 3,0.00014929,-0.00010747,-0.00001561,-0.00001202,0.00001057,0.00001512
 ,0.00002054,-0.00000752,-0.00008271,-0.00000244,0.00005422,-0.00000427
 ,-0.00000060,0.00000108,-0.00000466,-0.00000013,0.00000320,-0.00020850
 ,-0.00007613,0.00005195,-0.00005155,-0.00010767,0.00006514,0.00002848,
 0.00006584,-0.00003358,0.00001243,-0.00003459,0.00003881,-0.00001171,-
 0.00001019,-0.00004067,-0.00000300,0.00000150,-0.00001466,0.00001017,-
 0.00000376,0.00000016,-0.00040976,0.00067275,-0.00136995,-0.00049047,-
 0.00132450,0.00115671,0.00026515,-0.00001307,0.00039016,-0.00020917,-0
 .00020890,0.00030175,0.00020626,-0.00025722,0.00017998,0.00010881,0.00
 004948,0.00001974,-0.00001828,-0.00004359,-0.00000533,-0.01575631,-0.0
 0791063,-0.02243683,0.00025840,0.00269239,-0.00029819,0.00062137,-0.00
 052838,-0.00030204,-0.00032778,-0.00027439,0.00031448,0.00002036,0.000
 19220,-0.00003705,0.00390272,-0.04559790,0.00060096,0.00820685,0.00255
 744,0.02764645,0.00254511,0.05004278,0.00000488,-0.00009101,0.00000688
 ,-0.00001021,-0.00000347,0.00000611,-0.00000142,-0.00000507,0.00000147
 ,-0.00000285,0.00002274,0.,-0.00000497,0.00000162,0.00000366,-0.000000
 59,0.00000083,0.00000073,0.00001085,0.00005586,-0.00002788,-0.00007976
 ,0.00001649,0.00004965,0.00003433,0.00007375,-0.00001659,0.00000125,-0
 .00003826,-0.00000700,-0.00000671,0.00002176,0.00001469,0.00000109,0.0
 0000269,-0.00000039,-0.00000319,-0.00000182,0.00000276,-0.00004274,0.0
 0004162,0.00009388,0.00010358,0.00001916,-0.00001288,0.00001313,-0.000
 05632,-0.00005406,0.00001839,-0.00000088,-0.00002324,0.00002330,-0.000
 01582,-0.00002311,-0.00000692,0.00000213,-0.00000088,-0.00000570,0.000
 00592,0.00000045,-0.00168370,-0.00116521,-0.00106967,0.00001953,0.0001
 6341,0.00098606,0.00022825,-0.00054493,-0.00012208,0.00018336,-0.00038
 978,-0.00010947,0.00009091,0.00007075,-0.00002753,-0.08133451,0.003049
 39,-0.30717248,-0.00017500,-0.00111504,-0.00431480,0.08977742,-0.00126
 868,0.32521907,0.00003983,-0.00012634,-0.00005233,-0.00003548,0.000017
 57,0.00001136,-0.00001316,-0.00001829,0.00000670,-0.00003557,0.0000520
 7,0.00001528,-0.00001025,0.00000109,0.00000509,-0.00000356,0.00000205,
 0.00000382,-0.00001636,0.00009338,0.00008686,-0.00004829,0.00007598,0.
 00020339,0.00009006,0.00008769,-0.00008363,0.00000182,-0.00004227,0.00
 004297,0.00002245,0.00001853,-0.00005215,-0.00000113,0.00000761,-0.000
 00728,-0.00000593,-0.00000746,0.00000022,-0.00001034,0.00049688,-0.000
 13971,-0.00012495,-0.00053555,-0.00005127,0.00001547,-0.00024076,0.000
 02727,-0.00009292,-0.00009097,0.00003196,0.00007940,-0.00015379,-0.000
 01865,0.00003111,0.00002680,0.00001721,-0.00000857,0.00001433,0.000001
 93,-0.00679234,0.00703083,0.00951520,-0.00000663,0.00105602,-0.0005438
 2,0.00071065,-0.00029252,0.00019440,0.00008205,0.00008766,0.00008279,0
 .00012636,0.00001421,-0.00010472,-0.21224014,0.03934110,0.13538783,-0.
 00824703,0.00064173,0.00735896,0.01026539,-0.00160173,-0.00724186,0.21
 930555,-0.00016088,-0.00031429,0.00008840,-0.00001615,0.00001272,-0.00
 000295,-0.00002208,-0.00003173,0.00001446,0.00005687,0.00005384,-0.000
 04870,-0.00000911,0.00000348,0.00000327,0.00000263,0.00000238,0.000000
 13,0.00016596,0.00018215,-0.00009055,-0.00000859,0.00017750,0.00020502
 ,0.00004048,0.00007217,-0.00004773,0.00002156,-0.00003282,0.00002195,-
 0.00000834,0.00003423,-0.00002501,-0.00000262,0.00000476,-0.00000394,-
 0.00001441,0.00000156,0.00000734,-0.00017527,0.00039176,-0.00017091,-0
 .00004470,-0.00049232,-0.00009402,0.00012004,-0.00013833,0.00002479,-0
 .00000222,-0.00005634,0.00003421,0.00011208,-0.00009996,-0.00000650,0.
 00001418,0.00002113,0.00000828,-0.00001797,-0.00000661,0.00000257,-0.0
 1394270,0.00316115,0.01276354,-0.00069802,0.00136146,0.00022446,0.0005
 6444,-0.00081188,0.00040652,0.00012282,0.00004259,-0.00001421,0.000046
 32,0.00013407,-0.00016796,0.03945114,-0.05448498,-0.02920526,0.0214693
 8,-0.00182025,-0.01902280,-0.00009270,-0.00055096,0.00106853,-0.042945
 50,0.05606356,-0.00013986,-0.00017069,0.00008112,-0.00000634,0.0000158
 2,-0.00000344,-0.00001679,-0.00002463,0.00000993,0.00004424,0.00003308
 ,-0.00003946,-0.00000185,0.00000144,0.00000093,0.00000230,0.00000125,0
 .00000008,0.00014590,0.00007387,-0.00003637,0.00002581,0.00013490,0.00
 006862,-0.00001059,-0.00004153,0.00000199,-0.00001260,0.00004681,0.000
 01784,0.00004061,-0.00002276,-0.00004211,-0.00000099,-0.00000100,0.000
 00183,-0.00000868,0.00000164,0.00000414,0.00014079,0.00009963,-0.00001
 289,-0.00015016,-0.00003586,-0.00008219,-0.00007145,-0.00004357,0.0000
 3255,-0.00006023,-0.00001637,0.00000557,-0.00003049,-0.00001858,-0.000
 00974,0.00001191,0.00000058,0.00000557,0.00000832,0.00001045,-0.000001
 13,-0.00637557,0.00081144,0.00410549,0.00026288,0.00015498,-0.00012416
 ,-0.00012985,0.00066375,-0.00014973,-0.00015072,-0.00004673,-0.0000154
 4,-0.00017699,0.00001513,0.00001942,0.13457763,-0.03111293,-0.16044160
 ,-0.00733394,0.00109260,0.00483804,0.02407796,-0.00512877,-0.01471890,
 -0.14389992,0.03489922,0.16592348,0.00140556,0.00346432,-0.00072417,0.
 00029919,0.00010294,0.00003864,0.00009123,0.00017724,-0.00014005,-0.00
 030643,-0.00056091,0.00021863,0.00013133,-0.00006314,-0.00005440,-0.00
 000944,-0.00002806,-0.00001476,-0.00130531,-0.00004442,0.00216239,-0.0
 0178105,0.00137777,0.00024712,-0.00083715,-0.00233479,0.00036436,-0.00
 020841,0.00122058,-0.00010524,0.00074836,-0.00057954,-0.00046613,-0.00
 003971,-0.00002998,0.00002705,0.00012565,0.00000642,-0.00004123,0.0011
 7685,-0.00087600,-0.00138383,-0.00253874,-0.00150039,0.00128780,-0.000
 61334,-0.00128919,0.00092096,-0.00092376,-0.00006751,0.00051506,-0.000
 17414,-0.00012138,0.00008872,0.00019620,-0.00006180,-0.00006550,0.0000
 3419,0.00006530,-0.00003777,-0.05872527,0.00650740,0.01076949,-0.00951
 199,0.00484431,0.00723161,-0.00070457,0.00153518,-0.00001421,0.0019144
 5,-0.00251447,0.00132412,-0.00066482,0.00048569,0.00020075,-0.02273877
 ,-0.00052394,0.01839534,0.00120350,0.00092308,-0.00002334,0.00227576,0
 .00276699,0.00066865,-0.00243429,-0.00300238,0.00022106,0.49029604,0.0
 0077803,-0.00109921,-0.00094683,-0.00014769,0.00010185,0.00003062,-0.0
 0008531,-0.00018283,0.00009750,-0.00001354,0.00021000,-0.00006430,-0.0
 0000707,0.00001927,0.00001931,0.00000056,0.00001477,0.00001595,0.00049
 651,0.00002868,-0.00082341,0.00155334,-0.00157850,-0.00103730,-0.00026
 046,-0.00043649,0.00018728,-0.00034977,0.00064458,0.00042321,0.0005915
 2,-0.00056060,-0.00071134,0.00000587,-0.00002367,-0.00000592,0.0000126
 3,-0.00002456,-0.00001466,0.00091147,0.00073104,0.00041807,-0.00106910
 ,-0.00929536,-0.00297823,-0.00190478,-0.00564219,-0.00003042,-0.001194
 05,-0.00026359,0.00006179,0.00062109,-0.00123389,-0.00032847,0.0002226
 9,0.00008572,-0.00003002,-0.00009046,0.00018006,0.00013528,0.01080840,
 -0.05207405,-0.00586146,0.00924459,-0.00511037,-0.01283195,0.00044927,
 -0.00250551,-0.00018598,-0.00079213,0.00186755,-0.00155887,0.00197849,
 -0.00154942,0.00086249,-0.01189148,0.00279632,0.01357876,-0.00032621,0
 .00025264,0.00040952,0.00034402,0.00038863,-0.00023666,-0.00233764,-0.
 00318992,-0.00194569,0.05267591,0.59744300,-0.00120835,-0.00320413,0.0
 0073515,-0.00039789,-0.00036588,0.00013852,-0.00001848,-0.00012475,0.0
 0003138,0.00021804,0.00073939,-0.00025131,-0.00017326,0.00009624,0.000
 08100,0.00000727,0.00002994,0.00001948,0.00208126,-0.00024712,-0.00102
 207,0.00127290,-0.00162689,-0.00147133,0.00046330,0.00241257,0.0000689
 6,0.00001298,-0.00113790,-0.00000041,-0.00030900,0.00059257,0.00035848
 ,0.00001467,0.00001472,0.00001280,-0.00017092,0.00003201,0.00007897,-0
 .00009034,0.00013906,0.00114858,0.00075620,-0.00172714,-0.00216428,0.0
 0055315,0.00027813,0.00026049,0.00062688,0.00025614,-0.00039115,0.0001
 0540,0.00015921,-0.00007484,-0.00015749,-0.00004990,-0.00005352,-0.000
 08738,-0.00006704,0.00003262,0.04304685,-0.01417397,-0.09049428,-0.004
 60646,-0.00044239,0.00565329,-0.00067406,0.00213309,-0.00087380,-0.001
 08974,0.00099997,0.00121966,-0.00077733,0.00038941,-0.00034896,0.00021
 252,0.00256690,0.00097872,-0.00060254,-0.00110135,-0.00012090,-0.00084
 061,-0.00025246,0.00097286,-0.00112101,-0.00219130,0.00027543,0.124505
 61,-0.04850114,0.45304730,-0.00357753,-0.00249800,0.00322425,0.0001600
 1,0.00024691,-0.00003033,-0.00012929,-0.00035627,0.00017158,0.00111182
 ,0.00034508,-0.00053039,0.00002290,0.00000949,-0.00001996,0.00004926,0
 .00002204,-0.00004427,0.00081164,0.00051775,-0.00258635,-0.00045853,0.
 00192259,0.00009070,-0.00051925,-0.00132651,0.00016138,-0.00013154,0.0
 0097089,0.00015781,0.00041885,-0.00020286,-0.00047354,-0.00003174,-0.0
 0000862,0.00003152,-0.00009560,0.00008433,0.00004732,0.00004193,0.0016
 2501,-0.00105383,0.00070000,-0.00211563,-0.00036805,-0.00000206,-0.000
 43066,0.00050902,-0.00023144,-0.00021240,0.00011965,0.00020415,-0.0004
 4198,0.00015981,0.00009854,0.00008047,0.00002227,-0.00000373,-0.000032
 06,0.00002096,-0.00573682,0.01984292,0.00994714,-0.00185729,0.00039119
 ,0.00251057,-0.00021996,0.00085617,-0.00000435,-0.00006002,-0.00026422
 ,0.00019361,-0.00063411,0.00039906,-0.00017946,0.00206751,0.00113215,-
 0.00031471,-0.00039259,-0.00039484,0.00065106,-0.00095780,0.00010683,-
 0.00032997,0.00030223,0.00005189,-0.00018602,-0.05445196,-0.05043935,-
 0.01826840,0.06282224,0.00294464,0.00477807,-0.00204081,-0.00005837,-0
 .00012934,0.00003009,0.00015993,0.00047298,-0.00014901,-0.00142678,-0.
 00058053,0.00096191,0.00003409,-0.00003510,-0.00002766,-0.00008520,-0.
 00003907,0.00004035,-0.00188196,-0.00326876,0.00156776,0.00024772,-0.0
 0139383,-0.00009884,0.00036316,0.00013956,-0.00017438,0.00004720,-0.00
 043571,0.00000494,-0.00010224,0.00008402,0.00005263,0.00001121,0.00003
 127,-0.00002847,0.00014196,-0.00010353,-0.00008205,0.00005652,0.000319
 42,0.00086116,0.00029589,0.00009693,-0.00056800,-0.00005317,-0.0008458
 7,-0.00024183,0.00002779,0.00002064,-0.00013131,0.00015173,-0.00008119
 ,-0.00019455,-0.00003767,-0.00000727,-0.00001422,-0.00004393,0.0000364
 5,0.00002227,0.00055073,-0.00387439,-0.00118611,0.00003500,-0.00027427
 ,0.00037638,0.00002362,0.00010115,-0.00014587,-0.00013813,-0.00006648,
 -0.00022009,-0.00000749,0.00000999,-0.00006679,-0.00120708,0.00092345,
 0.00084881,0.00006087,0.00054925,0.00031676,0.00062830,0.00026593,-0.0
 0009669,-0.00047535,0.00001216,0.00028418,-0.05040576,-0.30577616,-0.0
 7332165,0.05338030,0.32159539,0.00422774,0.00271304,-0.00279816,-0.000
 12638,-0.00031204,0.00012442,0.00016363,0.00041529,-0.00005917,-0.0011
 9963,-0.00036872,0.00107856,-0.00003883,-0.00000623,0.00003676,-0.0000
 8900,-0.00003111,0.00003011,-0.00286774,-0.00058673,0.00024595,-0.0004
 0534,-0.00173947,-0.00077948,0.00048691,0.00147929,-0.00024298,0.00014
 851,-0.00103956,-0.00021409,-0.00062422,0.00026262,0.00059616,0.000039
 36,0.00000052,-0.00004728,0.00012337,-0.00008050,-0.00004757,-0.000649
 31,-0.00089466,-0.00201190,-0.00006356,-0.00068341,0.00080808,0.000841
 11,0.00197854,-0.00014891,0.00019748,0.00005634,0.00021533,-0.00004498
 ,0.00018411,0.00033664,0.00003408,-0.00000812,0.00001676,0.00004392,-0
 .00011868,-0.00000575,0.00460120,-0.01766583,-0.01473005,-0.00040234,0
 .00010259,-0.00116378,-0.00011716,-0.00014180,0.00003263,0.00013239,0.
 00010605,0.00018997,0.00026499,-0.00012196,0.00013325,-0.00156155,-0.0
 0100870,0.00220210,0.00078160,0.00069242,-0.00055616,0.00020580,0.0004
 5490,0.00035988,-0.00059910,-0.00015012,-0.00005868,-0.01883359,-0.074
 01533,-0.06500807,0.01154346,0.07986882,0.07245249,0.00016190,-0.00005
 397,0.00003369,-0.00010634,-0.00003266,-0.00004645,-0.00000969,0.00004
 683,0.00001703,-0.00012854,0.00005705,-0.00002554,-0.00002186,0.000005
 26,0.00001984,0.00000230,0.00000224,0.00001488,-0.00004392,-0.00008350
 ,0.00003738,-0.00005861,0.00012079,0.00123676,0.00016434,0.00043977,0.
 00015118,-0.00005946,-0.00014332,-0.00014646,0.00020438,-0.00006807,-0
 .00005449,0.00001074,-0.00000454,0.00002347,-0.00000504,0.00000521,0.0
 0001968,0.00092040,0.00094835,-0.00116410,-0.00019272,-0.00250568,-0.0
 0016493,-0.00004162,-0.00030380,0.00027663,-0.00051604,-0.00000115,0.0
 0011082,0.00005579,-0.00035115,0.00020521,0.00012557,-0.00010119,-0.00
 000901,0.00001956,-0.00004439,0.00002537,-0.01531885,-0.00091318,-0.00
 330315,-0.00107581,0.00004821,0.00095114,-0.00011838,0.00044765,-0.000
 00135,0.00004904,-0.00017000,0.00027423,-0.00022716,0.00009933,-0.0000
 1223,-0.00162127,0.00099621,0.00218754,0.00003653,0.00001536,-0.000034
 48,0.00020352,0.00020086,0.00007862,-0.00038112,-0.00063749,-0.0002512
 0,-0.29900543,-0.03068298,-0.11180211,-0.00044317,0.00107892,-0.001011
 12,0.31943175,0.00042389,0.00023798,-0.00081939,0.00002046,-0.00019814
 ,-0.00005149,0.00012161,0.00019418,-0.00008725,-0.00021683,-0.00019347
 ,0.00006610,-0.00001115,0.00000340,0.00001547,0.00000263,-0.00000659,0
 .00000867,0.00030237,-0.00022723,0.00068679,-0.00014609,-0.00112325,0.
 00014045,0.00026260,0.00118662,0.00001321,0.00011871,-0.00074789,-0.00
 034838,-0.00030061,0.00021468,0.00067780,0.00003389,-0.00000757,0.0000
 0689,0.00000203,0.00000066,-0.00004982,0.00052716,-0.00436807,0.002476
 49,-0.00131847,0.00018024,-0.00068734,-0.00051017,0.00060504,-0.001413
 27,0.00031601,0.00047014,-0.00037654,-0.00038561,0.00089112,-0.0003710
 1,-0.00022222,-0.00017504,-0.00008446,0.00004293,0.00004765,-0.0000030
 7,0.00719850,-0.00099526,0.00322401,0.00195302,-0.00055987,-0.00140797
 ,0.00031373,-0.00073267,-0.00003092,-0.00000813,0.00043963,-0.00026895
 ,0.00051658,-0.00016628,-0.00004679,-0.00039336,0.00003692,-0.00014827
 ,0.00003826,0.00018645,-0.00010194,0.00020982,-0.00014637,0.00003908,-
 0.00016980,0.00008183,0.00016301,-0.03425128,-0.04739087,-0.01355080,-
 0.02710573,0.00034393,-0.01030712,0.03352359,0.04894412,-0.00050937,-0
 .00125992,0.00005156,-0.00013190,0.00010821,-0.00007474,-0.00007699,-0
 .00010514,0.00007119,0.00003398,0.00022498,-0.00015089,-0.00003099,0.0
 0000387,0.00002524,0.00000560,0.00001072,0.00001635,0.00063305,0.00042
 950,-0.00018837,0.00054275,0.00049164,0.00056833,0.00047461,0.00031549
 ,-0.00074070,0.00016879,-0.00034225,0.00025505,-0.00030526,0.00032334,
 -0.00018812,0.00000768,0.00003980,0.00000990,-0.00003683,-0.00000299,0
 .00002306,-0.00044248,0.00017058,0.00188818,0.00002794,-0.00002174,-0.
 00197138,0.00048827,-0.00040709,-0.00021782,0.00025385,0.00005031,-0.0
 0026753,-0.00006480,0.00022858,-0.00038115,-0.00006106,-0.00005254,0.0
 0004711,0.,0.00010178,0.00004467,0.02336407,0.00063011,0.00493820,0.00
 216855,0.00013301,-0.00168776,0.00026304,-0.00077947,0.00022097,-0.000
 04005,-0.00010055,-0.00021843,0.00025956,-0.00018296,0.00016444,0.0033
 3488,-0.00125581,-0.00347451,-0.00011049,-0.00000544,-0.00003318,0.000
 03139,-0.00028850,-0.00010813,0.00106091,0.00130775,0.00026911,-0.1161
 0739,-0.01169747,-0.08833364,-0.00592770,0.00124614,-0.00195059,0.1130
 9298,0.01464451,0.09872836,0.00112277,0.00168180,-0.00090139,0.0000855
 4,-0.00025825,-0.00003299,0.00015632,0.00020927,-0.00010191,-0.0001908
 3,-0.00053218,0.00018940,0.00002329,0.00000114,-0.00001970,-0.00000338
 ,-0.00001925,-0.00000614,-0.00072554,-0.00060588,0.00063734,-0.0018827
 9,-0.00116759,0.00135103,-0.00058911,0.00080709,0.00058096,0.00011131,
 -0.00004768,-0.00024146,-0.00103757,-0.00097595,0.00120002,0.00007826,
 -0.00010309,-0.00007574,0.00008263,-0.00000884,-0.00006509,-0.00029191
 ,-0.00200145,-0.00381515,-0.00052355,-0.00033848,0.00117940,-0.0008492
 1,0.00160520,0.00114323,0.00009668,0.00014809,0.00037224,-0.00028082,0
 .00056896,0.00068224,0.00001783,0.00001523,-0.00005512,0.00013552,-0.0
 0022010,0.00000595,-0.00526635,-0.00797703,0.01870420,0.00178695,-0.00
 179875,0.00059230,0.00015650,-0.00036536,0.00001640,-0.00090861,0.0015
 1149,-0.00042710,0.00024174,0.00009846,-0.00024888,-0.00064516,0.00100
 941,0.00155430,0.00002258,0.00014755,0.00001220,-0.00009896,-0.0002406
 6,-0.00032742,-0.00056433,-0.00043866,-0.00054518,-0.04292372,0.020897
 64,-0.03148168,0.00112333,-0.00431644,0.00479830,-0.00201079,0.0191116
 6,-0.02236657,0.05355137,0.00038070,-0.00082740,-0.00015232,-0.0000438
 1,-0.00049606,0.00008775,0.00015331,0.00025392,-0.00008557,-0.00026493
 ,0.00008887,0.00023493,-0.00009769,0.00003481,0.00007588,-0.00001063,-
 0.00001074,-0.00000148,-0.00017905,0.00024149,-0.00038868,-0.00139100,
 -0.00081092,0.00012454,0.00065381,0.00283555,-0.00040582,0.00073606,-0
 .00177859,-0.00060869,-0.00216817,0.00074017,0.00172623,0.00007645,-0.
 00004295,-0.00005761,-0.00003626,0.00004929,0.00004346,-0.00333453,-0.
 00422819,-0.01020083,-0.00020076,-0.00096523,0.00292334,0.00217760,0.0
 0146544,0.00383222,0.00121797,0.00030126,0.00133709,-0.00048731,0.0013
 1904,0.00152905,0.00015013,0.00005755,-0.00007216,0.00024011,-0.000576
 52,0.00002865,0.00446793,0.00450185,-0.01509868,-0.00057520,0.00139609
 ,-0.00065901,-0.00003590,-0.00021895,0.00009173,0.00122026,0.00023557,
 -0.00000551,0.00027182,0.00000070,-0.00017294,-0.00023358,-0.00081416,
 -0.00015808,0.00004391,0.00010957,-0.00014585,-0.00031363,0.00000466,0
 .00037391,-0.00002756,0.00021588,0.00010530,0.02210181,-0.16682693,0.1
 5124648,0.00384404,-0.01286910,0.02096558,-0.00193857,0.00297395,-0.00
 395848,-0.02639734,0.17364007,-0.00069540,-0.00130891,0.00049889,0.000
 05837,0.00013341,0.00013041,-0.00009010,-0.00012215,0.00004888,0.00017
 165,0.00029882,-0.00002493,0.00000172,0.00000207,0.00002538,-0.0000058
 7,0.00001043,-0.00001336,0.00052518,0.00042678,-0.00073369,0.00164158,
 -0.00025713,-0.00291155,0.00062212,-0.00024151,-0.00014145,-0.00025389
 ,-0.00016971,-0.00033971,0.00085987,0.00080323,0.00023962,-0.00005429,
 0.00007319,0.00005913,-0.00002761,0.00000129,0.00003364,-0.00071772,-0
 .00280724,0.00260466,0.00041840,0.00126500,0.00001306,0.00015253,0.001
 16449,-0.00333938,0.00005723,0.00018632,-0.00046129,0.00007838,-0.0000
 2065,-0.00057496,-0.00014640,-0.00007629,-0.00000307,-0.00001627,0.000
 11354,0.00000775,0.00241238,0.00439658,-0.01383006,-0.00173060,0.00148
 532,0.00183512,-0.00030819,0.00035639,0.00024227,0.00090384,-0.0014346
 5,0.00073281,-0.00031623,0.00027001,0.00003238,-0.00010924,-0.00047992
 ,0.00010135,0.00001342,0.00015866,-0.00003922,0.00015221,0.00030143,0.
 00009096,-0.00013874,0.00016152,0.00007472,-0.03117575,0.14756564,-0.2
 1450514,0.00075524,-0.00769387,0.01096351,-0.00072983,0.00799231,-0.00
 733480,0.02769200,-0.15255443,0.22651805\\0.00000237,0.00000129,0.0000
 0128,0.00000415,0.00000253,0.00000368,0.00000467,0.00000222,0.00000347
 ,0.00000524,0.00000164,0.00000117,0.00000447,0.00000294,0.00000500,0.0
 0000596,0.00000307,0.00000415,0.00000295,0.00000022,-0.00000134,-0.000
 20370,0.00024733,-0.00020878,0.00000317,0.00000184,0.00000219,0.000002
 03,0.00000142,0.00000294,0.00000129,0.00000076,0.00000184,0.00000217,0
 .00000195,0.00000375,0.00000491,0.00000175,0.00000155,-0.00000275,-0.0
 0000030,0.00000105,-0.00000401,-0.00000103,0.00000014,-0.00000097,0.00
 000031,0.00000056,-0.00000300,0.00000075,0.00000355,-0.00000391,-0.000
 00086,0.00000051,-0.00000398,0.00000030,0.00000395,-0.00000295,-0.0000
 0048,0.00000069,-0.00028043,0.00036388,-0.00037600,-0.00000253,-0.0000
 0192,-0.00000339,-0.00000290,-0.00000256,-0.00000494,-0.00000167,-0.00
 000156,-0.00000315,-0.00000434,-0.00000169,-0.00000255,-0.00000195,-0.
 00000239,-0.00000480,-0.00000183,-0.00000209,-0.00000453,-0.00000051,-
 0.00000206,-0.00000527,-0.00000292,-0.00000289,-0.00000591,0.00048183,
 -0.00061258,0.00058239,0.00000038,-0.00000051,-0.00000197,-0.00000121,
 -0.00000053,0.00000023,-0.00000001,-0.00000075,-0.00000146\\\@


 E PUR SI MUOVE    -- GALILEO GALILEI
 Job cpu time:       0 days  0 hours 47 minutes 18.8 seconds.
 File lengths (MBytes):  RWF=    371 Int=      0 D2E=      0 Chk=      8 Scr=      1
 Normal termination of Gaussian 09 at Wed Mar 24 06:42:17 2021.
