 Entering Gaussian System, Link 0=g09
 Initial command:
 /opt/software/gaussian/g09.e01/l1.exe "/localscratch/enas93.61778963.0/Gau-106294.inp" -scrdir="/localscratch/enas93.61778963.0/"
 Entering Link 1 = /opt/software/gaussian/g09.e01/l1.exe PID=    106295.
  
 Copyright (c) 1988,1990,1992,1993,1995,1998,2003,2009,2015,
            Gaussian, Inc.  All Rights Reserved.
  
 This is part of the Gaussian(R) 09 program.  It is based on
 the Gaussian(R) 03 system (copyright 2003, Gaussian, Inc.),
 the Gaussian(R) 98 system (copyright 1998, Gaussian, Inc.),
 the Gaussian(R) 94 system (copyright 1995, Gaussian, Inc.),
 the Gaussian 92(TM) system (copyright 1992, Gaussian, Inc.),
 the Gaussian 90(TM) system (copyright 1990, Gaussian, Inc.),
 the Gaussian 88(TM) system (copyright 1988, Gaussian, Inc.),
 the Gaussian 86(TM) system (copyright 1986, Carnegie Mellon
 University), and the Gaussian 82(TM) system (copyright 1983,
 Carnegie Mellon University). Gaussian is a federally registered
 trademark of Gaussian, Inc.
  
 This software contains proprietary and confidential information,
 including trade secrets, belonging to Gaussian, Inc.
  
 This software is provided under written license and may be
 used, copied, transmitted, or stored only in accord with that
 written license.
  
 The following legend is applicable only to US Government
 contracts under FAR:
  
                    RESTRICTED RIGHTS LEGEND
  
 Use, reproduction and disclosure by the US Government is
 subject to restrictions as set forth in subparagraphs (a)
 and (c) of the Commercial Computer Software - Restricted
 Rights clause in FAR 52.227-19.
  
 Gaussian, Inc.
 340 Quinnipiac St., Bldg. 40, Wallingford CT 06492
  
  
 ---------------------------------------------------------------
 Warning -- This program may not be used in any manner that
 competes with the business of Gaussian, Inc. or will provide
 assistance to any competitor of Gaussian, Inc.  The licensee
 of this program is prohibited from giving any competitor of
 Gaussian, Inc. access to this program.  By using this program,
 the user acknowledges that Gaussian, Inc. is engaged in the
 business of creating and licensing software in the field of
 computational chemistry and represents and warrants to the
 licensee that it is not a competitor of Gaussian, Inc. and that
 it will not use this program in any manner prohibited above.
 ---------------------------------------------------------------
  

 Cite this work as:
 Gaussian 09, Revision E.01,
 M. J. Frisch, G. W. Trucks, H. B. Schlegel, G. E. Scuseria, 
 M. A. Robb, J. R. Cheeseman, G. Scalmani, V. Barone, B. Mennucci, 
 G. A. Petersson, H. Nakatsuji, M. Caricato, X. Li, H. P. Hratchian, 
 A. F. Izmaylov, J. Bloino, G. Zheng, J. L. Sonnenberg, M. Hada, 
 M. Ehara, K. Toyota, R. Fukuda, J. Hasegawa, M. Ishida, T. Nakajima, 
 Y. Honda, O. Kitao, H. Nakai, T. Vreven, J. A. Montgomery, Jr., 
 J. E. Peralta, F. Ogliaro, M. Bearpark, J. J. Heyd, E. Brothers, 
 K. N. Kudin, V. N. Staroverov, T. Keith, R. Kobayashi, J. Normand, 
 K. Raghavachari, A. Rendell, J. C. Burant, S. S. Iyengar, J. Tomasi, 
 M. Cossi, N. Rega, J. M. Millam, M. Klene, J. E. Knox, J. B. Cross, 
 V. Bakken, C. Adamo, J. Jaramillo, R. Gomperts, R. E. Stratmann, 
 O. Yazyev, A. J. Austin, R. Cammi, C. Pomelli, J. W. Ochterski, 
 R. L. Martin, K. Morokuma, V. G. Zakrzewski, G. A. Voth, 
 P. Salvador, J. J. Dannenberg, S. Dapprich, A. D. Daniels, 
 O. Farkas, J. B. Foresman, J. V. Ortiz, J. Cioslowski, 
 and D. J. Fox, Gaussian, Inc., Wallingford CT, 2013.
 
 ******************************************
 Gaussian 09:  EM64L-G09RevE.01 30-Nov-2015
                12-Feb-2021 
 ******************************************
 %nprocshared=16
 Will use up to   16 processors via shared memory.
 %mem=10GB
 --------------------------------
 # opt freq b3lyp/6-31g(d) nosymm
 --------------------------------
 1/14=-1,18=20,19=15,26=3,38=1/1,3;
 2/9=110,12=2,15=1,17=6,18=5,40=1/2;
 3/5=1,6=6,7=1,11=2,16=1,25=1,30=1,71=1,74=-5/1,2,3;
 4//1;
 5/5=2,38=5/2;
 6/7=2,8=2,9=2,10=2,28=1/1;
 7/30=1/1,2,3,16;
 1/14=-1,18=20,19=15,26=3/3(2);
 2/9=110,15=1/2;
 99//99;
 2/9=110,15=1/2;
 3/5=1,6=6,7=1,11=2,16=1,25=1,30=1,71=1,74=-5/1,2,3;
 4/5=5,16=3,69=1/1;
 5/5=2,38=5/2;
 7/30=1/1,2,3,16;
 1/14=-1,18=20,19=15,26=3/3(-5);
 2/9=110,15=1/2;
 6/7=2,8=2,9=2,10=2,19=2,28=1/1;
 99/9=1/99;
 -------------------
 Title Card Required
 -------------------
 Symbolic Z-matrix:
 Charge =  0 Multiplicity = 1
 C                    -0.18968   1.57507  -0.81747 
 C                    -2.51018   0.03243  -1.04384 
 C                    -2.30972   0.84584   0.16441 
 N                    -1.34684   1.87075  -0.07609 
 H                    -3.42123  -0.54392  -1.15839 
 H                    -3.22565   1.27262   0.57881 
 O                     0.86684   2.17552  -0.54733 
 N                    -0.2805    0.62757  -1.79261 
 C                    -1.46905  -0.05647  -1.92264 
 N                    -1.47547  -0.91879  -3.0276 
 H                    -0.94775  -0.53138  -3.80303 
 H                    -2.4019   -1.21217  -3.31589 
 H                    -1.13957   2.50104   0.6897 
 S                     3.0472   -1.43335   0.18329 
 C                     3.36599   0.1481    1.04273 
 H                     4.1428    0.66625   0.47613 
 H                     2.45888   0.76126   1.05132 
 H                     3.72747  -0.05691   2.05263 
 C                     1.45867  -0.66127  -1.03607 
 H                     0.68951  -0.79275  -0.289 
 H                     1.86244   0.3323   -1.17647 
 H                     1.43935  -1.3371   -1.88269 
 C                     2.04593  -2.31665   1.42682 
 H                     1.73587  -3.2627    0.97663 
 H                     2.66089  -2.51848   2.30689 
 H                     1.15994  -1.73028   1.69314 
 C                    -1.71316   0.79278   3.05915 
 H                    -0.94268   1.5625    2.93899 
 H                    -2.68825   1.27602   3.18695 
 H                    -1.49342   0.22621   3.96861 
 S                    -1.74002  -0.37509   1.64585 
 
 Add virtual bond connecting atoms C19        and N8         Dist= 4.33D+00.
 Add virtual bond connecting atoms H20        and N8         Dist= 4.32D+00.
 Add virtual bond connecting atoms H21        and O7         Dist= 4.13D+00.
 Add virtual bond connecting atoms H21        and N8         Dist= 4.25D+00.

 GradGradGradGradGradGradGradGradGradGradGradGradGradGradGradGradGradGrad
 Berny optimization.
 Initialization pass.
                           ----------------------------
                           !    Initial Parameters    !
                           ! (Angstroms and Degrees)  !
 --------------------------                            --------------------------
 ! Name  Definition              Value          Derivative Info.                !
 --------------------------------------------------------------------------------
 ! R1    R(1,4)                  1.4057         estimate D2E/DX2                !
 ! R2    R(1,7)                  1.2449         estimate D2E/DX2                !
 ! R3    R(1,8)                  1.3627         estimate D2E/DX2                !
 ! R4    R(2,3)                  1.4703         estimate D2E/DX2                !
 ! R5    R(2,5)                  1.0841         estimate D2E/DX2                !
 ! R6    R(2,9)                  1.3653         estimate D2E/DX2                !
 ! R7    R(3,4)                  1.4267         estimate D2E/DX2                !
 ! R8    R(3,6)                  1.0921         estimate D2E/DX2                !
 ! R9    R(3,31)                 2.0025         estimate D2E/DX2                !
 ! R10   R(4,13)                 1.0132         estimate D2E/DX2                !
 ! R11   R(7,21)                 2.1873         estimate D2E/DX2                !
 ! R12   R(8,9)                  1.3775         estimate D2E/DX2                !
 ! R13   R(8,19)                 2.2931         estimate D2E/DX2                !
 ! R14   R(8,20)                 2.2845         estimate D2E/DX2                !
 ! R15   R(8,21)                 2.2492         estimate D2E/DX2                !
 ! R16   R(9,10)                 1.4016         estimate D2E/DX2                !
 ! R17   R(10,11)                1.0148         estimate D2E/DX2                !
 ! R18   R(10,12)                1.0136         estimate D2E/DX2                !
 ! R19   R(14,15)                1.8279         estimate D2E/DX2                !
 ! R20   R(14,19)                2.1462         estimate D2E/DX2                !
 ! R21   R(14,23)                1.8246         estimate D2E/DX2                !
 ! R22   R(15,16)                1.0922         estimate D2E/DX2                !
 ! R23   R(15,17)                1.0949         estimate D2E/DX2                !
 ! R24   R(15,18)                1.0921         estimate D2E/DX2                !
 ! R25   R(19,20)                1.0803         estimate D2E/DX2                !
 ! R26   R(19,21)                1.0816         estimate D2E/DX2                !
 ! R27   R(19,22)                1.0835         estimate D2E/DX2                !
 ! R28   R(23,24)                1.0926         estimate D2E/DX2                !
 ! R29   R(23,25)                1.0924         estimate D2E/DX2                !
 ! R30   R(23,26)                1.0953         estimate D2E/DX2                !
 ! R31   R(27,28)                1.0957         estimate D2E/DX2                !
 ! R32   R(27,29)                1.0957         estimate D2E/DX2                !
 ! R33   R(27,30)                1.0938         estimate D2E/DX2                !
 ! R34   R(27,31)                1.8336         estimate D2E/DX2                !
 ! A1    A(4,1,7)              118.8629         estimate D2E/DX2                !
 ! A2    A(4,1,8)              117.9563         estimate D2E/DX2                !
 ! A3    A(7,1,8)              123.1767         estimate D2E/DX2                !
 ! A4    A(3,2,5)              119.7041         estimate D2E/DX2                !
 ! A5    A(3,2,9)              117.4518         estimate D2E/DX2                !
 ! A6    A(5,2,9)              122.5606         estimate D2E/DX2                !
 ! A7    A(2,3,4)              110.5435         estimate D2E/DX2                !
 ! A8    A(2,3,6)              114.4352         estimate D2E/DX2                !
 ! A9    A(2,3,31)             108.0256         estimate D2E/DX2                !
 ! A10   A(4,3,6)              110.4415         estimate D2E/DX2                !
 ! A11   A(4,3,31)             111.7593         estimate D2E/DX2                !
 ! A12   A(6,3,31)             101.3117         estimate D2E/DX2                !
 ! A13   A(1,4,3)              119.5624         estimate D2E/DX2                !
 ! A14   A(1,4,13)             111.165          estimate D2E/DX2                !
 ! A15   A(3,4,13)             117.2275         estimate D2E/DX2                !
 ! A16   A(1,7,21)              85.2638         estimate D2E/DX2                !
 ! A17   A(1,8,9)              118.0567         estimate D2E/DX2                !
 ! A18   A(1,8,19)              95.9795         estimate D2E/DX2                !
 ! A19   A(1,8,20)              86.1587         estimate D2E/DX2                !
 ! A20   A(1,8,21)              80.3142         estimate D2E/DX2                !
 ! A21   A(9,8,19)             113.9822         estimate D2E/DX2                !
 ! A22   A(9,8,20)              96.8782         estimate D2E/DX2                !
 ! A23   A(9,8,21)             141.5118         estimate D2E/DX2                !
 ! A24   A(20,8,21)             48.2065         estimate D2E/DX2                !
 ! A25   A(2,9,8)              124.3927         estimate D2E/DX2                !
 ! A26   A(2,9,10)             122.9548         estimate D2E/DX2                !
 ! A27   A(8,9,10)             112.5745         estimate D2E/DX2                !
 ! A28   A(9,10,11)            111.4152         estimate D2E/DX2                !
 ! A29   A(9,10,12)            113.9828         estimate D2E/DX2                !
 ! A30   A(11,10,12)           111.6195         estimate D2E/DX2                !
 ! A31   A(15,14,19)            94.8746         estimate D2E/DX2                !
 ! A32   A(15,14,23)           101.1922         estimate D2E/DX2                !
 ! A33   A(19,14,23)            98.9281         estimate D2E/DX2                !
 ! A34   A(14,15,16)           106.8922         estimate D2E/DX2                !
 ! A35   A(14,15,17)           110.1026         estimate D2E/DX2                !
 ! A36   A(14,15,18)           109.276          estimate D2E/DX2                !
 ! A37   A(16,15,17)           109.1244         estimate D2E/DX2                !
 ! A38   A(16,15,18)           109.4726         estimate D2E/DX2                !
 ! A39   A(17,15,18)           111.8452         estimate D2E/DX2                !
 ! A40   A(8,19,14)            161.9879         estimate D2E/DX2                !
 ! A41   A(8,19,22)             94.5465         estimate D2E/DX2                !
 ! A42   A(14,19,20)            95.1811         estimate D2E/DX2                !
 ! A43   A(14,19,21)            97.3481         estimate D2E/DX2                !
 ! A44   A(14,19,22)           103.4592         estimate D2E/DX2                !
 ! A45   A(20,19,21)           117.8625         estimate D2E/DX2                !
 ! A46   A(20,19,22)           116.8569         estimate D2E/DX2                !
 ! A47   A(21,19,22)           118.5691         estimate D2E/DX2                !
 ! A48   A(7,21,8)              62.2582         estimate D2E/DX2                !
 ! A49   A(7,21,19)            124.529          estimate D2E/DX2                !
 ! A50   A(14,23,24)           107.103          estimate D2E/DX2                !
 ! A51   A(14,23,25)           109.2431         estimate D2E/DX2                !
 ! A52   A(14,23,26)           110.5141         estimate D2E/DX2                !
 ! A53   A(24,23,25)           109.3724         estimate D2E/DX2                !
 ! A54   A(24,23,26)           109.5214         estimate D2E/DX2                !
 ! A55   A(25,23,26)           110.9994         estimate D2E/DX2                !
 ! A56   A(28,27,29)           109.1919         estimate D2E/DX2                !
 ! A57   A(28,27,30)           108.2886         estimate D2E/DX2                !
 ! A58   A(28,27,31)           111.9139         estimate D2E/DX2                !
 ! A59   A(29,27,30)           108.0736         estimate D2E/DX2                !
 ! A60   A(29,27,31)           110.9627         estimate D2E/DX2                !
 ! A61   A(30,27,31)           108.2944         estimate D2E/DX2                !
 ! A62   A(3,31,27)            100.7227         estimate D2E/DX2                !
 ! D1    D(7,1,4,3)           -147.792          estimate D2E/DX2                !
 ! D2    D(7,1,4,13)            -6.1956         estimate D2E/DX2                !
 ! D3    D(8,1,4,3)             31.4928         estimate D2E/DX2                !
 ! D4    D(8,1,4,13)           173.0892         estimate D2E/DX2                !
 ! D5    D(4,1,7,21)           148.4121         estimate D2E/DX2                !
 ! D6    D(8,1,7,21)           -30.8331         estimate D2E/DX2                !
 ! D7    D(4,1,8,9)             -5.0102         estimate D2E/DX2                !
 ! D8    D(4,1,8,19)          -126.2703         estimate D2E/DX2                !
 ! D9    D(4,1,8,20)          -100.7624         estimate D2E/DX2                !
 ! D10   D(4,1,8,21)          -148.9919         estimate D2E/DX2                !
 ! D11   D(7,1,8,9)            174.2414         estimate D2E/DX2                !
 ! D12   D(7,1,8,19)            52.9814         estimate D2E/DX2                !
 ! D13   D(7,1,8,20)            78.4893         estimate D2E/DX2                !
 ! D14   D(7,1,8,21)            30.2597         estimate D2E/DX2                !
 ! D15   D(5,2,3,4)           -158.6203         estimate D2E/DX2                !
 ! D16   D(5,2,3,6)            -33.1744         estimate D2E/DX2                !
 ! D17   D(5,2,3,31)            78.8141         estimate D2E/DX2                !
 ! D18   D(9,2,3,4)             27.3385         estimate D2E/DX2                !
 ! D19   D(9,2,3,6)            152.7845         estimate D2E/DX2                !
 ! D20   D(9,2,3,31)           -95.2271         estimate D2E/DX2                !
 ! D21   D(3,2,9,8)             -4.1525         estimate D2E/DX2                !
 ! D22   D(3,2,9,10)           172.3933         estimate D2E/DX2                !
 ! D23   D(5,2,9,8)           -178.0107         estimate D2E/DX2                !
 ! D24   D(5,2,9,10)            -1.4649         estimate D2E/DX2                !
 ! D25   D(2,3,4,1)            -41.4306         estimate D2E/DX2                !
 ! D26   D(2,3,4,13)           179.2226         estimate D2E/DX2                !
 ! D27   D(6,3,4,1)           -169.1012         estimate D2E/DX2                !
 ! D28   D(6,3,4,13)            51.552          estimate D2E/DX2                !
 ! D29   D(31,3,4,1)            78.9265         estimate D2E/DX2                !
 ! D30   D(31,3,4,13)          -60.4203         estimate D2E/DX2                !
 ! D31   D(2,3,31,27)         -174.6334         estimate D2E/DX2                !
 ! D32   D(4,3,31,27)           63.5482         estimate D2E/DX2                !
 ! D33   D(6,3,31,27)          -54.0544         estimate D2E/DX2                !
 ! D34   D(1,7,21,8)            17.0769         estimate D2E/DX2                !
 ! D35   D(1,7,21,19)          -33.4669         estimate D2E/DX2                !
 ! D36   D(1,8,9,2)             -8.2219         estimate D2E/DX2                !
 ! D37   D(1,8,9,10)           174.9167         estimate D2E/DX2                !
 ! D38   D(19,8,9,2)           103.2655         estimate D2E/DX2                !
 ! D39   D(19,8,9,10)          -73.5959         estimate D2E/DX2                !
 ! D40   D(20,8,9,2)            81.0807         estimate D2E/DX2                !
 ! D41   D(20,8,9,10)          -95.7807         estimate D2E/DX2                !
 ! D42   D(21,8,9,2)           103.1238         estimate D2E/DX2                !
 ! D43   D(21,8,9,10)          -73.7376         estimate D2E/DX2                !
 ! D44   D(1,8,19,14)            7.6142         estimate D2E/DX2                !
 ! D45   D(1,8,19,22)         -173.9054         estimate D2E/DX2                !
 ! D46   D(9,8,19,14)         -116.7323         estimate D2E/DX2                !
 ! D47   D(9,8,19,22)           61.7481         estimate D2E/DX2                !
 ! D48   D(1,8,21,7)           -15.737          estimate D2E/DX2                !
 ! D49   D(9,8,21,7)          -139.2426         estimate D2E/DX2                !
 ! D50   D(20,8,21,7)         -109.2579         estimate D2E/DX2                !
 ! D51   D(2,9,10,11)          148.3339         estimate D2E/DX2                !
 ! D52   D(2,9,10,12)           20.9148         estimate D2E/DX2                !
 ! D53   D(8,9,10,11)          -34.7526         estimate D2E/DX2                !
 ! D54   D(8,9,10,12)         -162.1717         estimate D2E/DX2                !
 ! D55   D(19,14,15,16)        -92.1841         estimate D2E/DX2                !
 ! D56   D(19,14,15,17)         26.2241         estimate D2E/DX2                !
 ! D57   D(19,14,15,18)        149.4383         estimate D2E/DX2                !
 ! D58   D(23,14,15,16)        167.6992         estimate D2E/DX2                !
 ! D59   D(23,14,15,17)        -73.8926         estimate D2E/DX2                !
 ! D60   D(23,14,15,18)         49.3216         estimate D2E/DX2                !
 ! D61   D(15,14,19,8)         -24.797          estimate D2E/DX2                !
 ! D62   D(15,14,19,20)        -84.0217         estimate D2E/DX2                !
 ! D63   D(15,14,19,21)         34.9808         estimate D2E/DX2                !
 ! D64   D(15,14,19,22)        156.7606         estimate D2E/DX2                !
 ! D65   D(23,14,19,8)          77.3601         estimate D2E/DX2                !
 ! D66   D(23,14,19,20)         18.1353         estimate D2E/DX2                !
 ! D67   D(23,14,19,21)        137.1378         estimate D2E/DX2                !
 ! D68   D(23,14,19,22)       -101.0823         estimate D2E/DX2                !
 ! D69   D(15,14,23,24)        175.9369         estimate D2E/DX2                !
 ! D70   D(15,14,23,25)        -65.7035         estimate D2E/DX2                !
 ! D71   D(15,14,23,26)         56.7001         estimate D2E/DX2                !
 ! D72   D(19,14,23,24)         79.1159         estimate D2E/DX2                !
 ! D73   D(19,14,23,25)       -162.5245         estimate D2E/DX2                !
 ! D74   D(19,14,23,26)        -40.121          estimate D2E/DX2                !
 ! D75   D(14,19,21,7)        -119.6428         estimate D2E/DX2                !
 ! D76   D(20,19,21,7)         -19.7874         estimate D2E/DX2                !
 ! D77   D(22,19,21,7)         130.6365         estimate D2E/DX2                !
 ! D78   D(28,27,31,3)         -65.4433         estimate D2E/DX2                !
 ! D79   D(29,27,31,3)          56.8037         estimate D2E/DX2                !
 ! D80   D(30,27,31,3)         175.2657         estimate D2E/DX2                !
 --------------------------------------------------------------------------------
 Trust Radius=3.00D-01 FncErr=1.00D-07 GrdErr=1.00D-06
 Number of steps in this run=    186 maximum allowed number of steps=    186.
 GradGradGradGradGradGradGradGradGradGradGradGradGradGradGradGradGradGrad

                          Input orientation:                          
 ---------------------------------------------------------------------
 Center     Atomic      Atomic             Coordinates (Angstroms)
 Number     Number       Type             X           Y           Z
 ---------------------------------------------------------------------
      1          6           0       -0.189685    1.575073   -0.817472
      2          6           0       -2.510181    0.032433   -1.043843
      3          6           0       -2.309725    0.845838    0.164414
      4          7           0       -1.346837    1.870749   -0.076092
      5          1           0       -3.421226   -0.543922   -1.158386
      6          1           0       -3.225648    1.272618    0.578811
      7          8           0        0.866838    2.175518   -0.547328
      8          7           0       -0.280503    0.627572   -1.792606
      9          6           0       -1.469048   -0.056465   -1.922640
     10          7           0       -1.475468   -0.918789   -3.027601
     11          1           0       -0.947755   -0.531377   -3.803029
     12          1           0       -2.401902   -1.212165   -3.315891
     13          1           0       -1.139571    2.501040    0.689699
     14         16           0        3.047201   -1.433348    0.183293
     15          6           0        3.365987    0.148096    1.042728
     16          1           0        4.142801    0.666249    0.476135
     17          1           0        2.458883    0.761261    1.051318
     18          1           0        3.727474   -0.056910    2.052629
     19          6           0        1.458670   -0.661269   -1.036072
     20          1           0        0.689507   -0.792751   -0.289002
     21          1           0        1.862438    0.332300   -1.176466
     22          1           0        1.439349   -1.337097   -1.882691
     23          6           0        2.045934   -2.316653    1.426819
     24          1           0        1.735871   -3.262704    0.976635
     25          1           0        2.660888   -2.518477    2.306892
     26          1           0        1.159936   -1.730284    1.693143
     27          6           0       -1.713158    0.792780    3.059153
     28          1           0       -0.942679    1.562504    2.938991
     29          1           0       -2.688248    1.276024    3.186954
     30          1           0       -1.493420    0.226206    3.968606
     31         16           0       -1.740020   -0.375088    1.645849
 ---------------------------------------------------------------------
                    Distance matrix (angstroms):
                    1          2          3          4          5
     1  C    0.000000
     2  C    2.795654   0.000000
     3  C    2.447540   1.470270   0.000000
     4  N    1.405727   2.381033   1.426688   0.000000
     5  H    3.879332   1.084116   2.217356   3.362304   0.000000
     6  H    3.355318   2.164014   1.092145   2.077640   2.521095
     7  O    1.244891   4.030335   3.516416   2.283704   5.114317
     8  N    1.362678   2.426170   2.827598   2.372547   3.411565
     9  C    2.349486   1.365337   2.424187   2.671859   2.152370
    10  N    3.571730   2.431203   3.741504   4.063185   2.724053
    11  H    3.731669   3.220584   4.415007   4.451914   3.621098
    12  H    4.347953   2.592865   4.044304   4.594978   2.477983
    13  H    2.007800   3.313270   2.094010   1.013243   4.230031
    14  S    4.530956   5.876978   5.821658   5.503808   6.665713
    15  C    4.259039   6.236706   5.785498   5.141012   7.168686
    16  H    4.611921   6.853775   6.462547   5.647291   7.832667
    17  H    3.342092   5.441736   4.851121   4.121349   6.415760
    18  H    5.122986   6.964514   6.389686   5.830605   7.851860
    19  C    2.786770   4.029027   4.232415   3.899173   4.882839
    20  H    2.580475   3.389501   3.447601   3.359503   4.209022
    21  H    2.425813   4.384895   4.412326   3.725197   5.355856
    22  H    3.502739   4.263574   4.797020   4.617024   4.977844
    23  C    5.018004   5.690392   5.528723   5.594995   6.302039
    24  H    5.507329   5.741883   5.822943   6.079775   6.208522
    25  H    5.885964   6.668922   6.373054   6.403575   7.273179
    26  H    4.364636   4.905917   4.583881   4.730913   5.525008
    27  C    4.238062   4.248288   2.956048   3.335561   4.742563
    28  H    3.831210   4.545453   3.175012   3.057627   5.231513
    29  H    4.729448   4.413374   3.076376   3.577786   4.767750
    30  H    5.140594   5.118202   3.939819   4.368706   5.531327
    31  S    3.503515   2.827307   2.002467   2.857176   3.273941
                    6          7          8          9         10
     6  H    0.000000
     7  O    4.339569   0.000000
     8  N    3.835829   2.294176   0.000000
     9  C    3.333071   3.511352   1.377481   0.000000
    10  N    4.568545   4.605745   2.311793   1.401636   0.000000
    11  H    5.257729   4.606476   2.414578   2.008271   1.014819
    12  H    4.692697   5.461318   3.194583   2.036420   1.013637
    13  H    2.423434   2.379470   3.226410   3.670654   5.062250
    14  S    6.843049   4.279218   4.384653   5.169842   5.570381
    15  C    6.702941   3.589494   4.643911   5.675634   6.414476
    16  H    7.394070   3.749307   4.971348   6.145672   6.808337
    17  H    5.727010   2.662780   3.950951   4.994171   5.910945
    18  H    7.230884   4.463939   5.596269   6.542676   7.322717
    19  C    5.318891   2.938792   2.293072   3.118224   3.555513
    20  H    4.510797   2.984761   2.284527   2.805397   3.493269
    21  H    5.463864   2.187347   2.249224   3.436090   4.016658
    22  H    5.884879   3.801240   2.612648   3.178111   3.159424
    23  C    6.433627   5.046496   4.944236   5.355597   5.847748
    24  H    6.733801   5.714188   5.183503   5.381196   5.642742
    25  H    7.211794   5.779167   5.946031   6.403656   6.937237
    26  H    5.430700   4.512306   4.448010   4.773585   5.467111
    27  C    2.944481   4.644895   5.061557   5.059552   6.327285
    28  H    3.296427   3.975495   4.868325   5.151076   6.483895
    29  H    2.662935   5.233793   5.568998   5.419403   6.701398
    30  H    3.947949   5.455666   5.901172   5.898074   7.089305
    31  S    2.461828   4.255740   3.867621   3.592918   4.712402
                   11         12         13         14         15
    11  H    0.000000
    12  H    1.677891   0.000000
    13  H    5.423740   5.605901   0.000000
    14  S    5.715242   6.479655   5.767575   0.000000
    15  C    6.523145   7.356386   5.095197   1.827900   0.000000
    16  H    6.757168   7.793654   5.596027   2.386295   1.092223
    17  H    6.069661   6.825991   4.013287   2.432261   1.094935
    18  H    7.508103   8.229512   5.664699   2.419043   1.092062
    19  C    3.669306   4.517198   4.441772   2.146250   2.935019
    20  H    3.885528   4.346812   3.892614   2.488403   3.134046
    21  H    3.942329   5.014689   4.147055   2.523910   2.686896
    22  H    3.167830   4.101814   5.291438   2.619684   3.804709
    23  C    6.284958   6.595183   5.822453   1.824588   2.822243
    24  H    6.124311   6.304891   6.447577   2.386529   3.780900
    25  H    7.368989   7.678150   6.500335   2.415867   3.034120
    26  H    6.007299   6.168108   4.919221   2.435074   2.969514
    27  C    7.030560   6.718285   2.976822   5.990595   5.502663
    28  H    7.059688   6.996547   2.445185   5.699837   4.915381
    29  H    7.426700   6.968506   3.183606   7.018408   6.521019
    30  H    7.827515   7.480518   4.006409   6.140029   5.672804
    31  S    5.508392   5.075199   3.089802   5.116294   5.168054
                   16         17         18         19         20
    16  H    0.000000
    17  H    1.781977   0.000000
    18  H    1.783477   1.811450   0.000000
    19  C    3.354644   2.716839   3.879793   0.000000
    20  H    3.826141   2.709631   3.905629   1.080284   0.000000
    21  H    2.835960   2.345800   3.749253   1.081628   1.851783
    22  H    4.109271   3.748462   4.728757   1.083458   1.843480
    23  C    3.768071   3.128112   2.885421   3.025063   2.665748
    24  H    4.634704   4.089085   3.924457   3.300802   2.966038
    25  H    3.961088   3.517663   2.694730   4.008735   3.688243
    26  H    4.015216   2.882187   3.085719   2.946294   2.242581
    27  C    6.401582   4.630153   5.597816   5.380113   4.415524
    28  H    5.721105   3.971892   5.021799   5.149055   4.316387
    29  H    7.374523   5.596327   6.650180   6.227679   5.269851
    30  H    6.645147   4.941412   5.568560   5.877861   4.891898
    31  S    6.087709   4.390392   5.491830   4.184043   3.133798
                   21         22         23         24         25
    21  H    0.000000
    22  H    1.861356   0.000000
    23  C    3.718564   3.504330   0.000000
    24  H    4.192364   3.460005   1.092619   0.000000
    25  H    4.571459   4.521108   1.092442   1.783007   0.000000
    26  H    3.603112   3.608221   1.095331   1.787008   1.802996
    27  C    5.562140   6.236706   5.144304   5.716610   5.537382
    28  H    5.130211   6.109858   5.125069   5.857312   5.480844
    29  H    6.374856   7.040366   6.198216   6.712555   6.617099
    30  H    6.143680   6.729244   5.045180   5.617179   5.249081
    31  S    4.630720   4.846075   4.260410   4.568150   4.939543
                   26         27         28         29         30
    26  H    0.000000
    27  C    4.060358   0.000000
    28  H    4.100680   1.095697   0.000000
    29  H    5.106650   1.095746   1.786216   0.000000
    30  H    4.005731   1.093799   1.774575   1.772205   0.000000
    31  S    3.201334   1.833594   2.462160   2.449553   2.411963
                   31
    31  S    0.000000
 Symmetry turned off by external request.
 Stoichiometry    C8H17N3OS2
 Framework group  C1[X(C8H17N3OS2)]
 Deg. of freedom    87
 Full point group                 C1      NOp   1
 Rotational constants (GHZ):      0.5912746      0.3753518      0.3106066
 Standard basis: 6-31G(d) (6D, 7F)
   252 basis functions,   508 primitive gaussians,   252 cartesian basis functions
    63 alpha electrons       63 beta electrons
       nuclear repulsion energy      1191.6460046441 Hartrees.
 NAtoms=   31 NActive=   31 NUniq=   31 SFac= 1.00D+00 NAtFMM=   60 NAOKFM=F Big=F
 Integral buffers will be    131072 words long.
 Raffenetti 2 integral format.
 Two-electron integral symmetry is turned off.
 One-electron integrals computed using PRISM.
 NBasis=   252 RedAO= T EigKep=  1.68D-03  NBF=   252
 NBsUse=   252 1.00D-06 EigRej= -1.00D+00 NBFU=   252
 ExpMin= 1.17D-01 ExpMax= 2.19D+04 ExpMxC= 3.30D+03 IAcc=1 IRadAn=         1 AccDes= 0.00D+00
 Harris functional with IExCor=  402 and IRadAn=       1 diagonalized for initial guess.
 HarFok:  IExCor=  402 AccDes= 0.00D+00 IRadAn=         1 IDoV= 1 UseB2=F ITyADJ=14
 ICtDFT=  3500011 ScaDFX=  1.000000  1.000000  1.000000  1.000000
 FoFCou: FMM=F IPFlag=           0 FMFlag=      100000 FMFlg1=           0
         NFxFlg=           0 DoJE=T BraDBF=F KetDBF=T FulRan=T
         wScrn=  0.000000 ICntrl=     500 IOpCl=  0 I1Cent=   200000004 NGrid=           0
         NMat0=    1 NMatS0=      1 NMatT0=    0 NMatD0=    1 NMtDS0=    0 NMtDT0=    0
 Symmetry not used in FoFCou.
 Keep R1 ints in memory in canonical form, NReq=516431061.
 Requested convergence on RMS density matrix=1.00D-08 within 128 cycles.
 Requested convergence on MAX density matrix=1.00D-06.
 Requested convergence on             energy=1.00D-06.
 No special actions if energy rises.
 Integral accuracy reduced to 1.0D-05 until final iterations.
 EnCoef did     1 forward-backward iterations
 Initial convergence to 1.0D-05 achieved.  Increase integral accuracy.
 SCF Done:  E(RB3LYP) =  -1350.85907549     A.U. after   18 cycles
            NFock= 18  Conv=0.44D-08     -V/T= 2.0059

 **********************************************************************

            Population analysis using the SCF density.

 **********************************************************************

 Alpha  occ. eigenvalues --  -88.95563 -88.83404 -19.06808 -14.32460 -14.31612
 Alpha  occ. eigenvalues --  -14.27565 -10.26102 -10.24999 -10.24562 -10.23707
 Alpha  occ. eigenvalues --  -10.23351 -10.22096 -10.19438 -10.13673  -8.01589
 Alpha  occ. eigenvalues --   -7.89494  -5.97962  -5.97658  -5.97279  -5.85990
 Alpha  occ. eigenvalues --   -5.85614  -5.85007  -0.99601  -0.91607  -0.88883
 Alpha  occ. eigenvalues --   -0.86194  -0.82324  -0.75084  -0.74796  -0.72235
 Alpha  occ. eigenvalues --   -0.71238  -0.64311  -0.63363  -0.59175  -0.58460
 Alpha  occ. eigenvalues --   -0.51008  -0.49509  -0.48671  -0.48489  -0.47559
 Alpha  occ. eigenvalues --   -0.46837  -0.45514  -0.44516  -0.44112  -0.42712
 Alpha  occ. eigenvalues --   -0.42080  -0.41245  -0.40832  -0.40270  -0.39546
 Alpha  occ. eigenvalues --   -0.37746  -0.36959  -0.36417  -0.34586  -0.32412
 Alpha  occ. eigenvalues --   -0.32036  -0.30005  -0.23894  -0.22907  -0.21692
 Alpha  occ. eigenvalues --   -0.20950  -0.19767  -0.15783
 Alpha virt. eigenvalues --   -0.02832  -0.00713   0.03152   0.04465   0.04721
 Alpha virt. eigenvalues --    0.06483   0.08287   0.09577   0.10040   0.10320
 Alpha virt. eigenvalues --    0.11791   0.12667   0.13546   0.13819   0.14139
 Alpha virt. eigenvalues --    0.15133   0.15803   0.15930   0.17739   0.18034
 Alpha virt. eigenvalues --    0.18669   0.20218   0.20667   0.22623   0.24811
 Alpha virt. eigenvalues --    0.27041   0.30468   0.31768   0.32656   0.34352
 Alpha virt. eigenvalues --    0.34750   0.36073   0.39231   0.40350   0.41353
 Alpha virt. eigenvalues --    0.42087   0.43122   0.43322   0.44906   0.46041
 Alpha virt. eigenvalues --    0.48800   0.52035   0.52771   0.53927   0.55082
 Alpha virt. eigenvalues --    0.56625   0.57372   0.58514   0.59552   0.61054
 Alpha virt. eigenvalues --    0.61324   0.62729   0.63172   0.65547   0.67025
 Alpha virt. eigenvalues --    0.67571   0.68591   0.69176   0.70542   0.71500
 Alpha virt. eigenvalues --    0.73826   0.74518   0.75745   0.76603   0.77626
 Alpha virt. eigenvalues --    0.79968   0.80995   0.81295   0.82409   0.83107
 Alpha virt. eigenvalues --    0.83604   0.84865   0.85840   0.86576   0.87177
 Alpha virt. eigenvalues --    0.87479   0.88625   0.89157   0.89478   0.90435
 Alpha virt. eigenvalues --    0.90798   0.91885   0.92305   0.92769   0.93489
 Alpha virt. eigenvalues --    0.94250   0.95814   0.96337   0.96836   0.97589
 Alpha virt. eigenvalues --    0.98086   1.00173   1.02288   1.03462   1.03584
 Alpha virt. eigenvalues --    1.04902   1.07822   1.07880   1.09596   1.12654
 Alpha virt. eigenvalues --    1.15587   1.19181   1.20734   1.23070   1.27303
 Alpha virt. eigenvalues --    1.30552   1.31743   1.33901   1.35118   1.39934
 Alpha virt. eigenvalues --    1.40799   1.42467   1.45452   1.46677   1.50256
 Alpha virt. eigenvalues --    1.53611   1.59799   1.62046   1.62974   1.64961
 Alpha virt. eigenvalues --    1.67346   1.69018   1.70356   1.71921   1.72870
 Alpha virt. eigenvalues --    1.74336   1.76548   1.80077   1.81601   1.84086
 Alpha virt. eigenvalues --    1.84966   1.88286   1.90537   1.91529   1.93867
 Alpha virt. eigenvalues --    1.95940   1.99240   2.02280   2.04260   2.06591
 Alpha virt. eigenvalues --    2.09347   2.10050   2.13347   2.15646   2.16570
 Alpha virt. eigenvalues --    2.18308   2.18974   2.20125   2.20492   2.21407
 Alpha virt. eigenvalues --    2.21877   2.24632   2.25490   2.25864   2.26479
 Alpha virt. eigenvalues --    2.29977   2.32332   2.33303   2.37350   2.45943
 Alpha virt. eigenvalues --    2.46982   2.49661   2.54373   2.59264   2.65504
 Alpha virt. eigenvalues --    2.67937   2.68535   2.73733   2.75990   2.83571
 Alpha virt. eigenvalues --    2.84591   3.01073   3.03312   3.22465   3.34878
 Alpha virt. eigenvalues --    3.84810   3.85444   3.91830   4.03472   4.09615
 Alpha virt. eigenvalues --    4.18420   4.19552   4.22771   4.23211   4.26433
 Alpha virt. eigenvalues --    4.33158   4.39029   4.57584   4.61015
          Condensed to atoms (all electrons):
               1          2          3          4          5          6
     1  C    4.233590  -0.024458  -0.030391   0.288554   0.000788   0.002542
     2  C   -0.024458   5.208719   0.378807  -0.024964   0.354186  -0.027597
     3  C   -0.030391   0.378807   5.012274   0.266688  -0.050074   0.363903
     4  N    0.288554  -0.024964   0.266688   7.105332   0.003404  -0.041759
     5  H    0.000788   0.354186  -0.050074   0.003404   0.611246  -0.004251
     6  H    0.002542  -0.027597   0.363903  -0.041759  -0.004251   0.618525
     7  O    0.539377   0.000891   0.001354  -0.103208   0.000006  -0.000138
     8  N    0.347473  -0.066041  -0.012387  -0.111593   0.004627  -0.000201
     9  C   -0.023281   0.583186  -0.013606  -0.013372  -0.027685   0.003647
    10  N    0.002440  -0.096622   0.005417  -0.000131  -0.007264  -0.000055
    11  H   -0.000378   0.007872  -0.000221   0.000064  -0.000174   0.000008
    12  H   -0.000170  -0.002748   0.000063   0.000033   0.003704   0.000006
    13  H   -0.015241   0.004800  -0.033726   0.281373  -0.000131  -0.004071
    14  S    0.000568  -0.000125   0.000039   0.000071  -0.000003   0.000000
    15  C   -0.000145  -0.000002   0.000006   0.000020   0.000000  -0.000000
    16  H    0.000004  -0.000000   0.000000   0.000000  -0.000000   0.000000
    17  H    0.000478   0.000019  -0.000051  -0.000281   0.000000   0.000000
    18  H    0.000005  -0.000000  -0.000000  -0.000000  -0.000000   0.000000
    19  C   -0.016552  -0.000671   0.000072  -0.000830  -0.000035  -0.000022
    20  H   -0.002110   0.000985   0.000378  -0.000173   0.000016   0.000051
    21  H   -0.000938   0.000146  -0.000228   0.001516   0.000001   0.000003
    22  H    0.001527  -0.000124  -0.000041   0.000004   0.000002  -0.000000
    23  C   -0.000007  -0.000002   0.000012  -0.000002   0.000000  -0.000000
    24  H    0.000000   0.000001  -0.000000  -0.000000   0.000000   0.000000
    25  H    0.000001  -0.000000  -0.000000   0.000000  -0.000000   0.000000
    26  H   -0.000041   0.000063  -0.000099   0.000008   0.000000   0.000005
    27  C   -0.000521   0.002543  -0.009288  -0.000868  -0.000003  -0.001169
    28  H    0.000121   0.000117  -0.003862   0.004998   0.000001  -0.000163
    29  H    0.000022   0.000086  -0.003793  -0.000147  -0.000011   0.007019
    30  H    0.000003  -0.000054   0.001482  -0.000039   0.000001  -0.000136
    31  S    0.005850  -0.074630   0.229662  -0.092408   0.004728  -0.077666
               7          8          9         10         11         12
     1  C    0.539377   0.347473  -0.023281   0.002440  -0.000378  -0.000170
     2  C    0.000891  -0.066041   0.583186  -0.096622   0.007872  -0.002748
     3  C    0.001354  -0.012387  -0.013606   0.005417  -0.000221   0.000063
     4  N   -0.103208  -0.111593  -0.013372  -0.000131   0.000064   0.000033
     5  H    0.000006   0.004627  -0.027685  -0.007264  -0.000174   0.003704
     6  H   -0.000138  -0.000201   0.003647  -0.000055   0.000008   0.000006
     7  O    8.206246  -0.090429   0.001429  -0.000070  -0.000022   0.000001
     8  N   -0.090429   7.240542   0.352501  -0.084713   0.006551   0.005078
     9  C    0.001429   0.352501   4.404773   0.322191  -0.019471  -0.024947
    10  N   -0.000070  -0.084713   0.322191   7.032736   0.288000   0.307396
    11  H   -0.000022   0.006551  -0.019471   0.288000   0.429214  -0.027571
    12  H    0.000001   0.005078  -0.024947   0.307396  -0.027571   0.428724
    13  H    0.011520   0.006977   0.000562   0.000016  -0.000003  -0.000002
    14  S   -0.001204   0.009221  -0.000145  -0.000013   0.000007   0.000002
    15  C   -0.004796   0.000044   0.000004  -0.000000  -0.000000   0.000000
    16  H    0.000045  -0.000003  -0.000000   0.000000   0.000000   0.000000
    17  H    0.018468  -0.000780  -0.000008   0.000000   0.000000  -0.000000
    18  H    0.000036   0.000001   0.000000  -0.000000   0.000000   0.000000
    19  C   -0.019032   0.060132  -0.010255  -0.000821   0.000134   0.000050
    20  H   -0.001864  -0.013526   0.002847  -0.000504   0.000030  -0.000004
    21  H    0.039709  -0.029584   0.001844  -0.000064   0.000015   0.000002
    22  H    0.000600  -0.007715  -0.000847   0.003725  -0.000219  -0.000030
    23  C    0.000005  -0.000012  -0.000023   0.000001  -0.000000  -0.000000
    24  H    0.000000  -0.000006   0.000002  -0.000000   0.000000  -0.000000
    25  H    0.000000   0.000000   0.000000  -0.000000   0.000000   0.000000
    26  H    0.000009  -0.000200   0.000030  -0.000000   0.000000  -0.000000
    27  C   -0.000027  -0.000023   0.000084   0.000000   0.000000   0.000000
    28  H    0.000035   0.000000  -0.000005   0.000000   0.000000  -0.000000
    29  H   -0.000001  -0.000002   0.000004  -0.000000   0.000000   0.000000
    30  H   -0.000000   0.000000  -0.000001  -0.000000  -0.000000  -0.000000
    31  S    0.000333   0.001506  -0.005618  -0.000189  -0.000024   0.000000
              13         14         15         16         17         18
     1  C   -0.015241   0.000568  -0.000145   0.000004   0.000478   0.000005
     2  C    0.004800  -0.000125  -0.000002  -0.000000   0.000019  -0.000000
     3  C   -0.033726   0.000039   0.000006   0.000000  -0.000051  -0.000000
     4  N    0.281373   0.000071   0.000020   0.000000  -0.000281  -0.000000
     5  H   -0.000131  -0.000003   0.000000  -0.000000   0.000000  -0.000000
     6  H   -0.004071   0.000000  -0.000000   0.000000   0.000000   0.000000
     7  O    0.011520  -0.001204  -0.004796   0.000045   0.018468   0.000036
     8  N    0.006977   0.009221   0.000044  -0.000003  -0.000780   0.000001
     9  C    0.000562  -0.000145   0.000004  -0.000000  -0.000008   0.000000
    10  N    0.000016  -0.000013  -0.000000   0.000000   0.000000  -0.000000
    11  H   -0.000003   0.000007  -0.000000   0.000000   0.000000   0.000000
    12  H   -0.000002   0.000002   0.000000   0.000000  -0.000000   0.000000
    13  H    0.430376  -0.000020  -0.000007  -0.000000   0.000093  -0.000000
    14  S   -0.000020  15.437092   0.246640  -0.031629  -0.046298  -0.030954
    15  C   -0.000007   0.246640   5.348027   0.370055   0.341046   0.360150
    16  H   -0.000000  -0.031629   0.370055   0.485467  -0.019885  -0.021524
    17  H    0.000093  -0.046298   0.341046  -0.019885   0.468103  -0.019880
    18  H   -0.000000  -0.030954   0.360150  -0.021524  -0.019880   0.515727
    19  C    0.000038   0.063954  -0.019399  -0.000175   0.001042   0.001315
    20  H    0.000033  -0.046788  -0.000940  -0.000013   0.002746  -0.000157
    21  H   -0.000099  -0.040785  -0.001241   0.000752   0.002019   0.000126
    22  H    0.000000  -0.028846   0.001341  -0.000029   0.000401  -0.000038
    23  C    0.000000   0.244250  -0.027123   0.002295  -0.001712  -0.003556
    24  H    0.000000  -0.032863   0.002455  -0.000060  -0.000007   0.000034
    25  H   -0.000000  -0.031362  -0.002981   0.000014  -0.000323   0.003487
    26  H    0.000002  -0.040295  -0.002687   0.000001   0.003471  -0.000458
    27  C    0.001466  -0.000012  -0.000009   0.000000   0.000032   0.000000
    28  H    0.003857  -0.000007   0.000006  -0.000000   0.000036  -0.000001
    29  H   -0.000002  -0.000000  -0.000000   0.000000   0.000001   0.000000
    30  H   -0.000075  -0.000000   0.000001  -0.000000  -0.000004   0.000000
    31  S   -0.002663   0.000443  -0.000126   0.000003   0.000485   0.000009
              19         20         21         22         23         24
     1  C   -0.016552  -0.002110  -0.000938   0.001527  -0.000007   0.000000
     2  C   -0.000671   0.000985   0.000146  -0.000124  -0.000002   0.000001
     3  C    0.000072   0.000378  -0.000228  -0.000041   0.000012  -0.000000
     4  N   -0.000830  -0.000173   0.001516   0.000004  -0.000002  -0.000000
     5  H   -0.000035   0.000016   0.000001   0.000002   0.000000   0.000000
     6  H   -0.000022   0.000051   0.000003  -0.000000  -0.000000   0.000000
     7  O   -0.019032  -0.001864   0.039709   0.000600   0.000005   0.000000
     8  N    0.060132  -0.013526  -0.029584  -0.007715  -0.000012  -0.000006
     9  C   -0.010255   0.002847   0.001844  -0.000847  -0.000023   0.000002
    10  N   -0.000821  -0.000504  -0.000064   0.003725   0.000001  -0.000000
    11  H    0.000134   0.000030   0.000015  -0.000219  -0.000000   0.000000
    12  H    0.000050  -0.000004   0.000002  -0.000030  -0.000000  -0.000000
    13  H    0.000038   0.000033  -0.000099   0.000000   0.000000   0.000000
    14  S    0.063954  -0.046788  -0.040785  -0.028846   0.244250  -0.032863
    15  C   -0.019399  -0.000940  -0.001241   0.001341  -0.027123   0.002455
    16  H   -0.000175  -0.000013   0.000752  -0.000029   0.002295  -0.000060
    17  H    0.001042   0.002746   0.002019   0.000401  -0.001712  -0.000007
    18  H    0.001315  -0.000157   0.000126  -0.000038  -0.003556   0.000034
    19  C    5.374036   0.376480   0.347422   0.362242  -0.015360   0.000204
    20  H    0.376480   0.458760  -0.015507  -0.021478  -0.003094   0.000021
    21  H    0.347422  -0.015507   0.441008  -0.013131   0.000961   0.000013
    22  H    0.362242  -0.021478  -0.013131   0.487878   0.000838   0.000254
    23  C   -0.015360  -0.003094   0.000961   0.000838   5.337147   0.369214
    24  H    0.000204   0.000021   0.000013   0.000254   0.369214   0.488654
    25  H    0.001124   0.000009  -0.000050  -0.000039   0.362293  -0.021774
    26  H   -0.002805   0.008790   0.000377   0.000102   0.351360  -0.018857
    27  C    0.000011  -0.000085   0.000002  -0.000000   0.000003   0.000000
    28  H    0.000012  -0.000032  -0.000000  -0.000000   0.000013  -0.000000
    29  H   -0.000001   0.000007   0.000000   0.000000  -0.000001   0.000000
    30  H   -0.000000  -0.000000  -0.000000   0.000000   0.000007  -0.000000
    31  S   -0.004604   0.010893  -0.000012   0.000134  -0.006487   0.000182
              25         26         27         28         29         30
     1  C    0.000001  -0.000041  -0.000521   0.000121   0.000022   0.000003
     2  C   -0.000000   0.000063   0.002543   0.000117   0.000086  -0.000054
     3  C   -0.000000  -0.000099  -0.009288  -0.003862  -0.003793   0.001482
     4  N    0.000000   0.000008  -0.000868   0.004998  -0.000147  -0.000039
     5  H   -0.000000   0.000000  -0.000003   0.000001  -0.000011   0.000001
     6  H    0.000000   0.000005  -0.001169  -0.000163   0.007019  -0.000136
     7  O    0.000000   0.000009  -0.000027   0.000035  -0.000001  -0.000000
     8  N    0.000000  -0.000200  -0.000023   0.000000  -0.000002   0.000000
     9  C    0.000000   0.000030   0.000084  -0.000005   0.000004  -0.000001
    10  N   -0.000000  -0.000000   0.000000   0.000000  -0.000000  -0.000000
    11  H    0.000000   0.000000   0.000000   0.000000   0.000000  -0.000000
    12  H    0.000000  -0.000000   0.000000  -0.000000   0.000000  -0.000000
    13  H   -0.000000   0.000002   0.001466   0.003857  -0.000002  -0.000075
    14  S   -0.031362  -0.040295  -0.000012  -0.000007  -0.000000  -0.000000
    15  C   -0.002981  -0.002687  -0.000009   0.000006  -0.000000   0.000001
    16  H    0.000014   0.000001   0.000000  -0.000000   0.000000  -0.000000
    17  H   -0.000323   0.003471   0.000032   0.000036   0.000001  -0.000004
    18  H    0.003487  -0.000458   0.000000  -0.000001   0.000000   0.000000
    19  C    0.001124  -0.002805   0.000011   0.000012  -0.000001  -0.000000
    20  H    0.000009   0.008790  -0.000085  -0.000032   0.000007  -0.000000
    21  H   -0.000050   0.000377   0.000002  -0.000000   0.000000  -0.000000
    22  H   -0.000039   0.000102  -0.000000  -0.000000   0.000000   0.000000
    23  C    0.362293   0.351360   0.000003   0.000013  -0.000001   0.000007
    24  H   -0.021774  -0.018857   0.000000  -0.000000   0.000000  -0.000000
    25  H    0.511086  -0.022719  -0.000001  -0.000000   0.000000  -0.000000
    26  H   -0.022719   0.464411  -0.000049  -0.000052   0.000012  -0.000029
    27  C   -0.000001  -0.000049   5.282603   0.362187   0.366089   0.370749
    28  H   -0.000000  -0.000052   0.362187   0.590718  -0.038421  -0.030900
    29  H    0.000000   0.000012   0.366089  -0.038421   0.576537  -0.027725
    30  H   -0.000000  -0.000029   0.370749  -0.030900  -0.027725   0.543974
    31  S    0.000077   0.016762   0.212749  -0.049839  -0.047392  -0.029198
              31
     1  C    0.005850
     2  C   -0.074630
     3  C    0.229662
     4  N   -0.092408
     5  H    0.004728
     6  H   -0.077666
     7  O    0.000333
     8  N    0.001506
     9  C   -0.005618
    10  N   -0.000189
    11  H   -0.000024
    12  H    0.000000
    13  H   -0.002663
    14  S    0.000443
    15  C   -0.000126
    16  H    0.000003
    17  H    0.000485
    18  H    0.000009
    19  C   -0.004604
    20  H    0.010893
    21  H   -0.000012
    22  H    0.000134
    23  C   -0.006487
    24  H    0.000182
    25  H    0.000077
    26  H    0.016762
    27  C    0.212749
    28  H   -0.049839
    29  H   -0.047392
    30  H   -0.029198
    31  S   15.962355
 Mulliken charges:
               1
     1  C    0.690889
     2  C   -0.224383
     3  C   -0.102390
     4  N   -0.562292
     5  H    0.106922
     6  H    0.161517
     7  O   -0.599272
     8  N   -0.617441
     9  C    0.466160
    10  N   -0.771474
    11  H    0.316187
    12  H    0.310414
    13  H    0.314927
    14  S    0.329062
    15  C   -0.610337
    16  H    0.214681
    17  H    0.250790
    18  H    0.195680
    19  C   -0.497706
    20  H    0.244228
    21  H    0.265725
    22  H    0.213490
    23  C   -0.611019
    24  H    0.212529
    25  H    0.201159
    26  H    0.242887
    27  C   -0.586463
    28  H    0.161184
    29  H    0.167718
    30  H    0.171944
    31  S   -0.055317
 Sum of Mulliken charges =  -0.00000
 Mulliken charges with hydrogens summed into heavy atoms:
               1
     1  C    0.690889
     2  C   -0.117461
     3  C    0.059128
     4  N   -0.247365
     7  O   -0.599272
     8  N   -0.617441
     9  C    0.466160
    10  N   -0.144873
    14  S    0.329062
    15  C    0.050815
    19  C    0.225737
    23  C    0.045556
    27  C   -0.085617
    31  S   -0.055317
 Electronic spatial extent (au):  <R**2>=           4006.1260
 Charge=             -0.0000 electrons
 Dipole moment (field-independent basis, Debye):
    X=              3.9458    Y=             -3.6617    Z=              2.4531  Tot=              5.9157
 Quadrupole moment (field-independent basis, Debye-Ang):
   XX=            -86.6197   YY=           -102.8324   ZZ=            -90.0274
   XY=             -9.2722   XZ=              9.3897   YZ=              6.3772
 Traceless Quadrupole moment (field-independent basis, Debye-Ang):
   XX=              6.5401   YY=             -9.6725   ZZ=              3.1324
   XY=             -9.2722   XZ=              9.3897   YZ=              6.3772
 Octapole moment (field-independent basis, Debye-Ang**2):
  XXX=             35.7197  YYY=            -19.5035  ZZZ=            -31.3177  XYY=              2.2001
  XXY=              3.6030  XXZ=             -0.3817  XZZ=             -1.7613  YZZ=             -6.4059
  YYZ=             14.9483  XYZ=            -19.8530
 Hexadecapole moment (field-independent basis, Debye-Ang**3):
 XXXX=          -2497.8471 YYYY=          -1013.5095 ZZZZ=          -1434.1211 XXXY=            341.5971
 XXXZ=              7.3006 YYYX=            243.1526 YYYZ=             29.0892 ZZZX=             -1.1443
 ZZZY=             51.4647 XXYY=           -616.2297 XXZZ=           -638.5212 YYZZ=           -444.1504
 XXYZ=             42.0073 YYXZ=            -10.8488 ZZXY=             87.9322
 N-N= 1.191646004644D+03 E-N=-5.566165621920D+03  KE= 1.342983830376D+03
 Calling FoFJK, ICntrl=      2127 FMM=F ISym2X=0 I1Cent= 0 IOpClX= 0 NMat=1 NMatS=1 NMatT=0.
 -------------------------------------------------------------------
 Center     Atomic                   Forces (Hartrees/Bohr)
 Number     Number              X              Y              Z
 -------------------------------------------------------------------
      1        6          -0.000006124   -0.000001122   -0.000000225
      2        6          -0.000003427   -0.000004823    0.000006805
      3        6          -0.000001572   -0.000003265    0.000004026
      4        7          -0.000004266   -0.000003527    0.000004611
      5        1          -0.000002026   -0.000006395    0.000008329
      6        1          -0.000001785   -0.000006352    0.000008325
      7        8          -0.000006738    0.000004472   -0.000003023
      8        7          -0.000007112    0.000000252    0.000000654
      9        6          -0.000004592   -0.000002181    0.000003443
     10        7          -0.000006309   -0.000002385    0.000003436
     11        1          -0.000008678   -0.000001286    0.000002397
     12        1          -0.000006027   -0.000004201    0.000005717
     13        1          -0.000003979   -0.000002523    0.000002789
     14       16           0.000003459    0.000005873   -0.000006970
     15        6           0.000003610    0.000005414   -0.000007489
     16        1           0.000000094    0.000007813   -0.000010001
     17        1          -0.000001756    0.000004448   -0.000004171
     18        1           0.000005080    0.000006539   -0.000008969
     19        6          -0.000000609    0.000001854   -0.000002096
     20        1           0.000000329    0.000001293   -0.000001901
     21        1          -0.000004053    0.000002649   -0.000005006
     22        1          -0.000002622    0.000003306   -0.000003790
     23        6           0.000007645    0.000003526   -0.000005164
     24        1           0.000008177    0.000003052   -0.000004605
     25        1           0.000009792    0.000004847   -0.000007075
     26        1           0.000007101    0.000001973   -0.000003074
     27        6           0.000005587   -0.000003828    0.000005185
     28        1           0.000003350   -0.000002053    0.000003403
     29        1           0.000004547   -0.000005743    0.000006718
     30        1           0.000008403   -0.000003476    0.000003493
     31       16           0.000004502   -0.000004154    0.000004227
 -------------------------------------------------------------------
 Cartesian Forces:  Max     0.000010001 RMS     0.000004934

 GradGradGradGradGradGradGradGradGradGradGradGradGradGradGradGradGradGrad
 Berny optimization.
 FormGI is forming the generalized inverse of G from B-inverse, IUseBI=4.
 Internal  Forces:  Max     0.000003211 RMS     0.000000838
 Search for a local minimum.
 Step number   1 out of a maximum of  186
 All quantities printed in internal units (Hartrees-Bohrs-Radians)
 Mixed Optimization -- En-DIIS/RFO-DIIS
 Second derivative matrix not updated -- first step.
 ITU=  0
     Eigenvalues ---    0.00230   0.00230   0.00230   0.00230   0.00230
     Eigenvalues ---    0.00498   0.01514   0.01553   0.01670   0.01742
     Eigenvalues ---    0.01874   0.02136   0.02183   0.02355   0.02554
     Eigenvalues ---    0.03692   0.04183   0.04707   0.04980   0.05422
     Eigenvalues ---    0.06153   0.06211   0.07115   0.07134   0.07286
     Eigenvalues ---    0.07419   0.07551   0.07605   0.08292   0.08516
     Eigenvalues ---    0.09515   0.09662   0.09970   0.10310   0.10659
     Eigenvalues ---    0.11729   0.12408   0.12765   0.13033   0.14980
     Eigenvalues ---    0.15519   0.15702   0.16000   0.16000   0.16000
     Eigenvalues ---    0.16000   0.16000   0.16000   0.16000   0.16000
     Eigenvalues ---    0.16000   0.16000   0.16000   0.16173   0.19303
     Eigenvalues ---    0.19934   0.22659   0.23639   0.24037   0.24272
     Eigenvalues ---    0.24954   0.25000   0.29944   0.33011   0.33697
     Eigenvalues ---    0.34157   0.34162   0.34204   0.34248   0.34377
     Eigenvalues ---    0.34512   0.34532   0.34557   0.34566   0.34575
     Eigenvalues ---    0.35502   0.35580   0.38821   0.42185   0.44514
     Eigenvalues ---    0.45175   0.45351   0.45369   0.45434   0.47998
     Eigenvalues ---    0.50801   0.76985
 RFO step:  Lambda= 0.00000000D+00 EMin= 2.30000000D-03
 Linear search not attempted -- first point.
 Iteration  1 RMS(Cart)=  0.00036539 RMS(Int)=  0.00000004
 Iteration  2 RMS(Cart)=  0.00000006 RMS(Int)=  0.00000000
 Variable       Old X    -DE/DX   Delta X   Delta X   Delta X     New X
                                 (Linear)    (Quad)   (Total)
    R1        2.65644   0.00000   0.00000   0.00000   0.00000   2.65644
    R2        2.35250   0.00000   0.00000   0.00000   0.00000   2.35250
    R3        2.57509  -0.00000   0.00000  -0.00000  -0.00000   2.57509
    R4        2.77841  -0.00000   0.00000  -0.00000  -0.00000   2.77841
    R5        2.04868  -0.00000   0.00000  -0.00000  -0.00000   2.04868
    R6        2.58011   0.00000   0.00000   0.00000   0.00000   2.58011
    R7        2.69605  -0.00000   0.00000  -0.00000  -0.00000   2.69605
    R8        2.06386   0.00000   0.00000   0.00000   0.00000   2.06386
    R9        3.78411   0.00000   0.00000   0.00001   0.00001   3.78412
   R10        1.91475  -0.00000   0.00000  -0.00000  -0.00000   1.91475
   R11        4.13349   0.00000   0.00000   0.00004   0.00004   4.13353
   R12        2.60306  -0.00000   0.00000  -0.00000  -0.00000   2.60306
   R13        4.33328   0.00000   0.00000   0.00002   0.00002   4.33330
   R14        4.31713   0.00000   0.00000  -0.00000  -0.00000   4.31713
   R15        4.25042  -0.00000   0.00000   0.00005   0.00005   4.25046
   R16        2.64871  -0.00000   0.00000  -0.00000  -0.00000   2.64871
   R17        1.91773  -0.00000   0.00000  -0.00000  -0.00000   1.91773
   R18        1.91550  -0.00000   0.00000  -0.00000  -0.00000   1.91550
   R19        3.45423  -0.00000   0.00000  -0.00000  -0.00000   3.45423
   R20        4.05582   0.00000   0.00000   0.00003   0.00003   4.05585
   R21        3.44797  -0.00000   0.00000  -0.00000  -0.00000   3.44797
   R22        2.06400   0.00000   0.00000   0.00000   0.00000   2.06400
   R23        2.06913   0.00000   0.00000   0.00001   0.00001   2.06913
   R24        2.06370   0.00000   0.00000   0.00000   0.00000   2.06370
   R25        2.04144  -0.00000   0.00000   0.00000   0.00000   2.04144
   R26        2.04398   0.00000   0.00000   0.00000   0.00000   2.04398
   R27        2.04744   0.00000   0.00000   0.00000   0.00000   2.04744
   R28        2.06475   0.00000   0.00000   0.00000   0.00000   2.06475
   R29        2.06442  -0.00000   0.00000  -0.00000  -0.00000   2.06442
   R30        2.06988  -0.00000   0.00000  -0.00000  -0.00000   2.06987
   R31        2.07057  -0.00000   0.00000  -0.00000  -0.00000   2.07057
   R32        2.07066   0.00000   0.00000   0.00000   0.00000   2.07066
   R33        2.06698  -0.00000   0.00000  -0.00000  -0.00000   2.06698
   R34        3.46499   0.00000   0.00000   0.00001   0.00001   3.46499
    A1        2.07455   0.00000   0.00000  -0.00000  -0.00000   2.07455
    A2        2.05873   0.00000   0.00000   0.00000   0.00000   2.05873
    A3        2.14984  -0.00000   0.00000   0.00000   0.00000   2.14984
    A4        2.08923  -0.00000   0.00000  -0.00000  -0.00000   2.08923
    A5        2.04992   0.00000   0.00000   0.00000   0.00000   2.04992
    A6        2.13909  -0.00000   0.00000  -0.00000  -0.00000   2.13908
    A7        1.92935  -0.00000   0.00000   0.00000   0.00000   1.92935
    A8        1.99727  -0.00000   0.00000  -0.00000  -0.00000   1.99727
    A9        1.88540   0.00000   0.00000   0.00000   0.00000   1.88540
   A10        1.92757   0.00000   0.00000   0.00000   0.00000   1.92757
   A11        1.95057   0.00000   0.00000   0.00000   0.00000   1.95057
   A12        1.76822  -0.00000   0.00000  -0.00001  -0.00001   1.76822
   A13        2.08676   0.00000   0.00000   0.00001   0.00001   2.08676
   A14        1.94019   0.00000   0.00000   0.00000   0.00000   1.94020
   A15        2.04601  -0.00000   0.00000   0.00000   0.00000   2.04601
   A16        1.48813  -0.00000   0.00000  -0.00000  -0.00000   1.48813
   A17        2.06048  -0.00000   0.00000  -0.00000  -0.00000   2.06048
   A18        1.67516   0.00000   0.00000   0.00001   0.00001   1.67517
   A19        1.50375   0.00000   0.00000   0.00002   0.00002   1.50378
   A20        1.40175   0.00000   0.00000  -0.00000  -0.00000   1.40175
   A21        1.98936   0.00000   0.00000   0.00000   0.00000   1.98937
   A22        1.69084   0.00000   0.00000  -0.00000  -0.00000   1.69084
   A23        2.46985   0.00000   0.00000   0.00000   0.00000   2.46985
   A24        0.84136  -0.00000   0.00000  -0.00000  -0.00000   0.84136
   A25        2.17106   0.00000   0.00000   0.00000   0.00000   2.17106
   A26        2.14597  -0.00000   0.00000  -0.00000  -0.00000   2.14596
   A27        1.96479   0.00000   0.00000   0.00000   0.00000   1.96480
   A28        1.94456  -0.00000   0.00000  -0.00000  -0.00000   1.94456
   A29        1.98938   0.00000   0.00000   0.00000   0.00000   1.98938
   A30        1.94813   0.00000   0.00000  -0.00000  -0.00000   1.94813
   A31        1.65587   0.00000   0.00000   0.00003   0.00003   1.65591
   A32        1.76614  -0.00000   0.00000  -0.00001  -0.00001   1.76613
   A33        1.72662   0.00000   0.00000   0.00001   0.00001   1.72663
   A34        1.86562   0.00000   0.00000   0.00000   0.00000   1.86562
   A35        1.92165  -0.00000   0.00000  -0.00000  -0.00000   1.92165
   A36        1.90723  -0.00000   0.00000  -0.00001  -0.00001   1.90722
   A37        1.90458   0.00000   0.00000   0.00001   0.00001   1.90459
   A38        1.91066  -0.00000   0.00000  -0.00000  -0.00000   1.91066
   A39        1.95207  -0.00000   0.00000  -0.00000  -0.00000   1.95206
   A40        2.82722   0.00000   0.00000   0.00002   0.00002   2.82725
   A41        1.65015  -0.00000   0.00000  -0.00001  -0.00001   1.65013
   A42        1.66122   0.00000   0.00000   0.00000   0.00000   1.66122
   A43        1.69905   0.00000   0.00000   0.00002   0.00002   1.69907
   A44        1.80570  -0.00000   0.00000  -0.00001  -0.00001   1.80569
   A45        2.05709  -0.00000   0.00000   0.00000   0.00000   2.05709
   A46        2.03954   0.00000   0.00000   0.00000   0.00000   2.03954
   A47        2.06942  -0.00000   0.00000  -0.00001  -0.00001   2.06941
   A48        1.08661  -0.00000   0.00000  -0.00001  -0.00001   1.08660
   A49        2.17344   0.00000   0.00000   0.00001   0.00001   2.17346
   A50        1.86930   0.00000   0.00000   0.00000   0.00000   1.86930
   A51        1.90665  -0.00000   0.00000  -0.00000  -0.00000   1.90665
   A52        1.92883  -0.00000   0.00000  -0.00000  -0.00000   1.92883
   A53        1.90891   0.00000   0.00000   0.00000   0.00000   1.90891
   A54        1.91151   0.00000   0.00000   0.00000   0.00000   1.91151
   A55        1.93731   0.00000   0.00000   0.00000   0.00000   1.93731
   A56        1.90576  -0.00000   0.00000  -0.00000  -0.00000   1.90576
   A57        1.88999  -0.00000   0.00000  -0.00000  -0.00000   1.88999
   A58        1.95327   0.00000   0.00000   0.00001   0.00001   1.95328
   A59        1.88624  -0.00000   0.00000  -0.00000  -0.00000   1.88624
   A60        1.93666  -0.00000   0.00000  -0.00000  -0.00000   1.93666
   A61        1.89009  -0.00000   0.00000  -0.00000  -0.00000   1.89009
   A62        1.75794   0.00000   0.00000   0.00001   0.00001   1.75795
    D1       -2.57946  -0.00000   0.00000  -0.00003  -0.00003  -2.57949
    D2       -0.10813  -0.00000   0.00000  -0.00001  -0.00001  -0.10814
    D3        0.54965  -0.00000   0.00000  -0.00001  -0.00001   0.54965
    D4        3.02098   0.00000   0.00000   0.00001   0.00001   3.02099
    D5        2.59028   0.00000   0.00000   0.00000   0.00000   2.59028
    D6       -0.53814  -0.00000   0.00000  -0.00002  -0.00002  -0.53816
    D7       -0.08745   0.00000   0.00000  -0.00000  -0.00000  -0.08745
    D8       -2.20383  -0.00000   0.00000  -0.00001  -0.00001  -2.20384
    D9       -1.75864  -0.00000   0.00000  -0.00001  -0.00001  -1.75864
   D10       -2.60040  -0.00000   0.00000  -0.00000  -0.00000  -2.60040
   D11        3.04109   0.00000   0.00000   0.00002   0.00002   3.04111
   D12        0.92470   0.00000   0.00000   0.00001   0.00001   0.92471
   D13        1.36990   0.00000   0.00000   0.00002   0.00002   1.36991
   D14        0.52813   0.00000   0.00000   0.00002   0.00002   0.52815
   D15       -2.76845   0.00000   0.00000  -0.00000  -0.00000  -2.76845
   D16       -0.57900   0.00000   0.00000  -0.00000  -0.00000  -0.57900
   D17        1.37557  -0.00000   0.00000  -0.00001  -0.00001   1.37556
   D18        0.47715  -0.00000   0.00000  -0.00002  -0.00002   0.47713
   D19        2.66659  -0.00000   0.00000  -0.00002  -0.00002   2.66657
   D20       -1.66203  -0.00000   0.00000  -0.00002  -0.00002  -1.66205
   D21       -0.07247   0.00000   0.00000   0.00001   0.00001  -0.07246
   D22        3.00883   0.00000   0.00000   0.00002   0.00002   3.00885
   D23       -3.10687  -0.00000   0.00000  -0.00000  -0.00000  -3.10688
   D24       -0.02557   0.00000   0.00000   0.00000   0.00000  -0.02557
   D25       -0.72310   0.00000   0.00000   0.00002   0.00002  -0.72308
   D26        3.12802  -0.00000   0.00000  -0.00000  -0.00000   3.12802
   D27       -2.95137   0.00000   0.00000   0.00002   0.00002  -2.95135
   D28        0.89975  -0.00000   0.00000  -0.00000  -0.00000   0.89975
   D29        1.37753   0.00000   0.00000   0.00002   0.00002   1.37755
   D30       -1.05453   0.00000   0.00000   0.00000   0.00000  -1.05453
   D31       -3.04793   0.00000   0.00000   0.00049   0.00049  -3.04744
   D32        1.10913   0.00000   0.00000   0.00049   0.00049   1.10961
   D33       -0.94343   0.00000   0.00000   0.00048   0.00048  -0.94294
   D34        0.29805   0.00000   0.00000   0.00001   0.00001   0.29806
   D35       -0.58411  -0.00000   0.00000   0.00006   0.00006  -0.58405
   D36       -0.14350  -0.00000   0.00000  -0.00000  -0.00000  -0.14350
   D37        3.05287  -0.00000   0.00000  -0.00001  -0.00001   3.05287
   D38        1.80232   0.00000   0.00000   0.00001   0.00001   1.80234
   D39       -1.28449   0.00000   0.00000   0.00001   0.00001  -1.28448
   D40        1.41513   0.00000   0.00000   0.00002   0.00002   1.41515
   D41       -1.67169   0.00000   0.00000   0.00002   0.00002  -1.67167
   D42        1.79985   0.00000   0.00000  -0.00000  -0.00000   1.79985
   D43       -1.28696   0.00000   0.00000  -0.00001  -0.00001  -1.28697
   D44        0.13289   0.00000   0.00000   0.00012   0.00012   0.13301
   D45       -3.03522   0.00000   0.00000   0.00004   0.00004  -3.03518
   D46       -2.03736   0.00000   0.00000   0.00011   0.00011  -2.03725
   D47        1.07771   0.00000   0.00000   0.00003   0.00003   1.07774
   D48       -0.27466  -0.00000   0.00000  -0.00001  -0.00001  -0.27467
   D49       -2.43024  -0.00000   0.00000  -0.00001  -0.00001  -2.43025
   D50       -1.90691  -0.00000   0.00000  -0.00004  -0.00004  -1.90695
   D51        2.58891  -0.00000   0.00000  -0.00000  -0.00000   2.58891
   D52        0.36503  -0.00000   0.00000  -0.00000  -0.00000   0.36503
   D53       -0.60655   0.00000   0.00000   0.00000   0.00000  -0.60655
   D54       -2.83043   0.00000   0.00000   0.00000   0.00000  -2.83043
   D55       -1.60892   0.00000   0.00000   0.00030   0.00030  -1.60862
   D56        0.45770   0.00000   0.00000   0.00031   0.00031   0.45801
   D57        2.60819   0.00000   0.00000   0.00030   0.00030   2.60849
   D58        2.92690  -0.00000   0.00000   0.00028   0.00028   2.92719
   D59       -1.28967   0.00000   0.00000   0.00030   0.00030  -1.28937
   D60        0.86082   0.00000   0.00000   0.00029   0.00029   0.86111
   D61       -0.43279   0.00000   0.00000   0.00026   0.00026  -0.43253
   D62       -1.46646   0.00000   0.00000   0.00034   0.00034  -1.46611
   D63        0.61053   0.00000   0.00000   0.00035   0.00035   0.61088
   D64        2.73599   0.00000   0.00000   0.00034   0.00034   2.73633
   D65        1.35019   0.00000   0.00000   0.00026   0.00026   1.35045
   D66        0.31652   0.00000   0.00000   0.00034   0.00034   0.31686
   D67        2.39351   0.00000   0.00000   0.00035   0.00035   2.39386
   D68       -1.76422   0.00000   0.00000   0.00034   0.00034  -1.76388
   D69        3.07068   0.00000   0.00000   0.00002   0.00002   3.07069
   D70       -1.14674   0.00000   0.00000   0.00002   0.00002  -1.14673
   D71        0.98960   0.00000   0.00000   0.00002   0.00002   0.98962
   D72        1.38083  -0.00000   0.00000  -0.00002  -0.00002   1.38082
   D73       -2.83659  -0.00000   0.00000  -0.00002  -0.00002  -2.83660
   D74       -0.70024  -0.00000   0.00000  -0.00002  -0.00002  -0.70026
   D75       -2.08816  -0.00000   0.00000  -0.00005  -0.00005  -2.08821
   D76       -0.34536   0.00000   0.00000  -0.00004  -0.00004  -0.34539
   D77        2.28004  -0.00000   0.00000  -0.00005  -0.00005   2.27999
   D78       -1.14220  -0.00000   0.00000  -0.00006  -0.00006  -1.14227
   D79        0.99141   0.00000   0.00000  -0.00006  -0.00006   0.99135
   D80        3.05896  -0.00000   0.00000  -0.00007  -0.00007   3.05890
         Item               Value     Threshold  Converged?
 Maximum Force            0.000003     0.000450     YES
 RMS     Force            0.000001     0.000300     YES
 Maximum Displacement     0.001327     0.001800     YES
 RMS     Displacement     0.000365     0.001200     YES
 Predicted change in Energy=-3.117459D-09
 Optimization completed.
    -- Stationary point found.
                           ----------------------------
                           !   Optimized Parameters   !
                           ! (Angstroms and Degrees)  !
 --------------------------                            --------------------------
 ! Name  Definition              Value          Derivative Info.                !
 --------------------------------------------------------------------------------
 ! R1    R(1,4)                  1.4057         -DE/DX =    0.0                 !
 ! R2    R(1,7)                  1.2449         -DE/DX =    0.0                 !
 ! R3    R(1,8)                  1.3627         -DE/DX =    0.0                 !
 ! R4    R(2,3)                  1.4703         -DE/DX =    0.0                 !
 ! R5    R(2,5)                  1.0841         -DE/DX =    0.0                 !
 ! R6    R(2,9)                  1.3653         -DE/DX =    0.0                 !
 ! R7    R(3,4)                  1.4267         -DE/DX =    0.0                 !
 ! R8    R(3,6)                  1.0921         -DE/DX =    0.0                 !
 ! R9    R(3,31)                 2.0025         -DE/DX =    0.0                 !
 ! R10   R(4,13)                 1.0132         -DE/DX =    0.0                 !
 ! R11   R(7,21)                 2.1873         -DE/DX =    0.0                 !
 ! R12   R(8,9)                  1.3775         -DE/DX =    0.0                 !
 ! R13   R(8,19)                 2.2931         -DE/DX =    0.0                 !
 ! R14   R(8,20)                 2.2845         -DE/DX =    0.0                 !
 ! R15   R(8,21)                 2.2492         -DE/DX =    0.0                 !
 ! R16   R(9,10)                 1.4016         -DE/DX =    0.0                 !
 ! R17   R(10,11)                1.0148         -DE/DX =    0.0                 !
 ! R18   R(10,12)                1.0136         -DE/DX =    0.0                 !
 ! R19   R(14,15)                1.8279         -DE/DX =    0.0                 !
 ! R20   R(14,19)                2.1462         -DE/DX =    0.0                 !
 ! R21   R(14,23)                1.8246         -DE/DX =    0.0                 !
 ! R22   R(15,16)                1.0922         -DE/DX =    0.0                 !
 ! R23   R(15,17)                1.0949         -DE/DX =    0.0                 !
 ! R24   R(15,18)                1.0921         -DE/DX =    0.0                 !
 ! R25   R(19,20)                1.0803         -DE/DX =    0.0                 !
 ! R26   R(19,21)                1.0816         -DE/DX =    0.0                 !
 ! R27   R(19,22)                1.0835         -DE/DX =    0.0                 !
 ! R28   R(23,24)                1.0926         -DE/DX =    0.0                 !
 ! R29   R(23,25)                1.0924         -DE/DX =    0.0                 !
 ! R30   R(23,26)                1.0953         -DE/DX =    0.0                 !
 ! R31   R(27,28)                1.0957         -DE/DX =    0.0                 !
 ! R32   R(27,29)                1.0957         -DE/DX =    0.0                 !
 ! R33   R(27,30)                1.0938         -DE/DX =    0.0                 !
 ! R34   R(27,31)                1.8336         -DE/DX =    0.0                 !
 ! A1    A(4,1,7)              118.8629         -DE/DX =    0.0                 !
 ! A2    A(4,1,8)              117.9563         -DE/DX =    0.0                 !
 ! A3    A(7,1,8)              123.1767         -DE/DX =    0.0                 !
 ! A4    A(3,2,5)              119.7041         -DE/DX =    0.0                 !
 ! A5    A(3,2,9)              117.4518         -DE/DX =    0.0                 !
 ! A6    A(5,2,9)              122.5606         -DE/DX =    0.0                 !
 ! A7    A(2,3,4)              110.5435         -DE/DX =    0.0                 !
 ! A8    A(2,3,6)              114.4352         -DE/DX =    0.0                 !
 ! A9    A(2,3,31)             108.0256         -DE/DX =    0.0                 !
 ! A10   A(4,3,6)              110.4415         -DE/DX =    0.0                 !
 ! A11   A(4,3,31)             111.7593         -DE/DX =    0.0                 !
 ! A12   A(6,3,31)             101.3117         -DE/DX =    0.0                 !
 ! A13   A(1,4,3)              119.5624         -DE/DX =    0.0                 !
 ! A14   A(1,4,13)             111.165          -DE/DX =    0.0                 !
 ! A15   A(3,4,13)             117.2275         -DE/DX =    0.0                 !
 ! A16   A(1,7,21)              85.2638         -DE/DX =    0.0                 !
 ! A17   A(1,8,9)              118.0567         -DE/DX =    0.0                 !
 ! A18   A(1,8,19)              95.9795         -DE/DX =    0.0                 !
 ! A19   A(1,8,20)              86.1587         -DE/DX =    0.0                 !
 ! A20   A(1,8,21)              80.3142         -DE/DX =    0.0                 !
 ! A21   A(9,8,19)             113.9822         -DE/DX =    0.0                 !
 ! A22   A(9,8,20)              96.8782         -DE/DX =    0.0                 !
 ! A23   A(9,8,21)             141.5118         -DE/DX =    0.0                 !
 ! A24   A(20,8,21)             48.2065         -DE/DX =    0.0                 !
 ! A25   A(2,9,8)              124.3927         -DE/DX =    0.0                 !
 ! A26   A(2,9,10)             122.9548         -DE/DX =    0.0                 !
 ! A27   A(8,9,10)             112.5745         -DE/DX =    0.0                 !
 ! A28   A(9,10,11)            111.4152         -DE/DX =    0.0                 !
 ! A29   A(9,10,12)            113.9828         -DE/DX =    0.0                 !
 ! A30   A(11,10,12)           111.6195         -DE/DX =    0.0                 !
 ! A31   A(15,14,19)            94.8746         -DE/DX =    0.0                 !
 ! A32   A(15,14,23)           101.1922         -DE/DX =    0.0                 !
 ! A33   A(19,14,23)            98.9281         -DE/DX =    0.0                 !
 ! A34   A(14,15,16)           106.8922         -DE/DX =    0.0                 !
 ! A35   A(14,15,17)           110.1026         -DE/DX =    0.0                 !
 ! A36   A(14,15,18)           109.276          -DE/DX =    0.0                 !
 ! A37   A(16,15,17)           109.1244         -DE/DX =    0.0                 !
 ! A38   A(16,15,18)           109.4726         -DE/DX =    0.0                 !
 ! A39   A(17,15,18)           111.8452         -DE/DX =    0.0                 !
 ! A40   A(8,19,14)            161.9879         -DE/DX =    0.0                 !
 ! A41   A(8,19,22)             94.5465         -DE/DX =    0.0                 !
 ! A42   A(14,19,20)            95.1811         -DE/DX =    0.0                 !
 ! A43   A(14,19,21)            97.3481         -DE/DX =    0.0                 !
 ! A44   A(14,19,22)           103.4592         -DE/DX =    0.0                 !
 ! A45   A(20,19,21)           117.8625         -DE/DX =    0.0                 !
 ! A46   A(20,19,22)           116.8569         -DE/DX =    0.0                 !
 ! A47   A(21,19,22)           118.5691         -DE/DX =    0.0                 !
 ! A48   A(7,21,8)              62.2582         -DE/DX =    0.0                 !
 ! A49   A(7,21,19)            124.529          -DE/DX =    0.0                 !
 ! A50   A(14,23,24)           107.103          -DE/DX =    0.0                 !
 ! A51   A(14,23,25)           109.2431         -DE/DX =    0.0                 !
 ! A52   A(14,23,26)           110.5141         -DE/DX =    0.0                 !
 ! A53   A(24,23,25)           109.3724         -DE/DX =    0.0                 !
 ! A54   A(24,23,26)           109.5214         -DE/DX =    0.0                 !
 ! A55   A(25,23,26)           110.9994         -DE/DX =    0.0                 !
 ! A56   A(28,27,29)           109.1919         -DE/DX =    0.0                 !
 ! A57   A(28,27,30)           108.2886         -DE/DX =    0.0                 !
 ! A58   A(28,27,31)           111.9139         -DE/DX =    0.0                 !
 ! A59   A(29,27,30)           108.0736         -DE/DX =    0.0                 !
 ! A60   A(29,27,31)           110.9627         -DE/DX =    0.0                 !
 ! A61   A(30,27,31)           108.2944         -DE/DX =    0.0                 !
 ! A62   A(3,31,27)            100.7227         -DE/DX =    0.0                 !
 ! D1    D(7,1,4,3)           -147.792          -DE/DX =    0.0                 !
 ! D2    D(7,1,4,13)            -6.1956         -DE/DX =    0.0                 !
 ! D3    D(8,1,4,3)             31.4928         -DE/DX =    0.0                 !
 ! D4    D(8,1,4,13)           173.0892         -DE/DX =    0.0                 !
 ! D5    D(4,1,7,21)           148.4121         -DE/DX =    0.0                 !
[...]
 00002713,-0.00000140,0.00002681,-0.00001174,0.00001046,-0.00000356,-0.
 00000439,0.00000176,0.00001526,-0.00487514,0.00533010,-0.01682046,-0.0
 0049165,-0.00112850,0.00109428,0.00011900,-0.00028975,0.00005553,0.000
 01064,0.00006896,-0.00002219,0.00015301,0.00079084,0.00045919,0.003025
 18,0.00020498,0.00016259,0.00006500,-0.00008551,0.00000608,-0.00058681
 ,-0.00039484,-0.00039408,-0.00013088,0.00021249,-0.00009794,-0.1321637
 3,0.03818235,-0.22569344,-0.00656760,0.00261333,-0.00872065,0.13766278
 ,-0.04399929,0.24070646,0.00085172,0.00053033,0.00032610,-0.00036601,0
 .00018220,0.00065551,0.00037620,0.00067801,-0.00185266,-0.00039529,-0.
 00037402,0.00037070,-0.00000039,0.00001347,0.00001564,0.00003151,-0.00
 024317,0.00028542,-0.00074689,-0.00013252,-0.00023205,-0.00049042,-0.0
 0044264,-0.00011476,0.00069062,-0.00003831,-0.00047216,-0.00015940,0.0
 0027154,0.00020650,0.00005397,-0.00005625,0.00002448,0.00000590,-0.000
 04497,-0.00000470,0.00001565,0.00006250,-0.00000896,-0.01286967,0.0013
 2055,0.00913903,0.00096669,0.00086851,-0.00061784,0.00025181,0.0001743
 9,-0.00006057,0.00010296,-0.00070559,0.00001954,-0.00037993,-0.0002291
 5,-0.00016648,0.00049897,0.00067604,-0.00156310,0.00124128,-0.00036207
 ,0.00019698,0.00000729,-0.00015537,-0.00027297,-0.00001992,0.00016558,
 -0.00018753,-0.22567608,0.12403817,0.04825173,0.01066310,-0.00590147,-
 0.00329942,-0.01085945,0.00849682,0.00432231,0.23593740,0.00011144,0.0
 0019009,0.00038746,0.00018984,-0.00008557,-0.00023475,-0.00001249,-0.0
 0028018,0.00063425,0.00008405,0.00006162,-0.00022872,-0.00001239,0.000
 01506,-0.00002648,0.00002460,0.00005116,-0.00007077,-0.00003487,-0.000
 04250,-0.00019680,0.00031126,-0.00017076,-0.00011585,-0.00025452,-0.00
 005872,0.00016953,0.00006539,-0.00014011,-0.00007156,-0.00002727,0.000
 02137,-0.00001246,-0.00000357,0.00002224,-0.00000786,0.00002785,-0.000
 05113,0.00000597,-0.01635197,0.00369464,0.01190726,0.00011267,0.002037
 64,-0.00059811,0.00023073,0.00016959,0.00002299,0.00053338,-0.00002020
 ,0.00004305,-0.00010535,-0.00020043,-0.00013663,-0.00227257,0.00095463
 ,-0.00123840,0.00032078,0.00025303,0.00017396,-0.00013513,0.00002701,0
 .00022121,0.00010456,-0.00006100,-0.00000085,0.12062870,-0.12960832,-0
 .03873184,0.02291145,-0.01255916,-0.00534043,0.00205896,-0.00199383,-0
 .00174027,-0.12793570,0.13807851,0.00000031,0.00024700,0.00012188,0.00
 009227,-0.00014610,-0.00008808,-0.00012480,-0.00004849,0.00033962,0.00
 005118,0.00001026,-0.00001186,-0.00001078,0.00002072,-0.00001676,-0.00
 000015,0.00001941,-0.00005065,-0.00008341,-0.00015246,-0.00008215,0.00
 018395,-0.00018338,0.00011665,-0.00020660,-0.00004461,-0.00001343,0.00
 004781,-0.00002888,0.00002000,-0.00000153,-0.00000152,-0.00001363,-0.0
 0000100,0.00000393,-0.00000847,-0.00000549,0.00001367,-0.00000185,0.01
 876714,-0.00417174,-0.01237409,-0.00177661,-0.00081622,0.00079535,-0.0
 0014573,-0.00034690,-0.00021748,0.00013365,0.00054707,0.00051731,-0.00
 015792,0.00026212,0.00014479,0.00180305,-0.00125535,0.00070099,-0.0012
 6382,0.00106202,-0.00085086,0.00000813,0.00005510,0.00017006,-0.000196
 47,0.00006994,0.00009725,0.04956400,-0.03859989,-0.06320299,0.01028907
 ,-0.00660139,-0.00273217,-0.02135185,0.01460065,0.00927763,-0.05595440
 ,0.03567644,0.06827789,-0.00056115,0.00063298,-0.00010645,0.00122747,0
 .00098646,-0.00341626,0.00298321,-0.00432827,-0.00297305,-0.00018683,0
 .00055497,-0.00021227,0.00022614,-0.00022171,0.00028224,0.00005833,-0.
 00092533,-0.00022248,0.00033400,-0.00020205,-0.00009271,0.00145863,0.0
 0001763,0.00030126,-0.00256317,0.00045359,0.00076375,0.00047114,-0.001
 08264,-0.00053549,-0.00012330,0.00010813,-0.00001361,0.00000070,0.0001
 5529,-0.00003702,0.00032746,-0.00083000,0.00092140,0.00044807,-0.00025
 223,0.00037739,0.00000638,-0.00003105,0.00004585,0.00000357,-0.0000236
 5,-0.00001306,-0.00008386,0.00006670,-0.00000207,0.00000019,0.00000901
 ,-0.00000864,-0.00097618,0.00050297,-0.00054478,0.00073675,0.00010933,
 -0.00036519,-0.00015011,0.00011508,0.00015880,-0.00009248,-0.00002924,
 0.00011556,0.00000761,-0.00001285,-0.00030615,0.00007184,-0.00008225,0
 .00001309,-0.00019075,0.00005603,0.00005071,0.00026503,0.00018668,0.00
 038539,0.54281873,0.00079969,0.00133216,0.00117926,-0.00087983,-0.0013
 3077,0.00701344,-0.00140309,0.01298034,0.00181011,-0.00015352,-0.00076
 214,0.00047993,0.00026508,0.00001442,0.00030620,-0.00068205,0.00034446
 ,0.00072765,-0.00081242,-0.00066155,-0.00088353,-0.00206813,-0.0011745
 0,-0.00108196,0.00487964,-0.00028127,-0.00158763,-0.00096094,0.0018779
 6,0.00100846,0.00023497,-0.00015426,0.00007371,-0.00002881,-0.00033535
 ,0.00007125,0.00014009,0.00000719,0.00083192,-0.00104608,0.00048599,-0
 .00059118,0.00004885,0.00021716,-0.00003812,0.00002904,-0.00002233,-0.
 00000677,0.00003047,-0.00002483,0.00016739,-0.00005299,-0.00001275,-0.
 00002289,0.00155718,-0.00085120,0.00079993,-0.00009047,-0.00005635,0.0
 0002012,-0.00003641,0.00004655,-0.00005158,-0.00000013,-0.00000174,0.0
 0000012,-0.00010633,-0.00010512,0.00002981,-0.00002486,0.00001824,0.00
 001250,0.00005858,0.00003906,-0.00003449,0.00000978,-0.00005824,-0.000
 07984,-0.00346844,0.47573563,0.00092679,-0.00164010,-0.00228749,0.0011
 3379,0.00301675,-0.00792922,0.00231534,-0.01047931,-0.01231405,-0.0017
 9177,-0.00176629,0.00329431,-0.00027606,-0.00017106,-0.00018687,0.0004
 7591,-0.00072551,0.00288444,0.00001390,0.00023974,0.00047305,0.0019739
 1,0.00119720,0.00146361,-0.00587195,0.00037588,0.00154634,0.00104739,-
 0.00182939,-0.00094223,-0.00025334,0.00011727,-0.00007243,0.00003346,0
 .00035924,-0.00009203,-0.00028553,0.00022416,0.00044739,0.00082438,-0.
 00031483,0.00038332,-0.00002959,-0.00016774,0.00005178,-0.00002788,0.0
 0000065,-0.00000746,0.00003309,0.00013292,-0.00006765,0.00000368,0.000
 02848,0.00000150,-0.00100446,0.00051155,-0.00046350,0.00041730,-0.0000
 0578,-0.00029714,-0.00006517,0.00003500,0.00007519,-0.00011937,0.00000
 882,0.00003180,0.00002942,0.00010576,-0.00013849,0.00002018,-0.0000391
 8,0.00001153,-0.00017739,0.00002407,0.00005431,0.00034858,-0.00014883,
 0.00014023,0.00065254,-0.09841953,0.42537300,0.00070732,-0.00012554,-0
 .00024435,0.00003474,0.00013174,-0.00032461,-0.00077394,-0.00123923,0.
 00084284,-0.00025596,0.00047455,-0.00014072,-0.00000037,0.00003418,0.0
 0001653,-0.00011870,0.00006061,-0.00005027,-0.00027601,0.00009312,0.00
 001165,-0.00013178,0.00028167,0.00018882,-0.00016743,-0.00002865,0.000
 05696,0.00001831,-0.00000800,-0.00000655,-0.00000324,-0.00000251,-0.00
 000191,0.00000347,0.00000155,0.00000136,0.00037726,0.00036857,-0.00049
 892,-0.00009566,0.00005034,-0.00005495,-0.00000485,0.00007225,-0.00002
 401,0.00002083,-0.00001622,-0.00000754,-0.00002668,-0.00009248,0.00004
 280,-0.00001716,-0.00000370,0.00000095,0.00017533,-0.00012620,0.000117
 72,0.00000416,0.00005168,0.00003254,0.00001033,-0.00003138,-0.00000605
 ,0.00000968,0.00000681,-0.00002022,-0.00006448,-0.00002829,0.00002079,
 0.00001660,-0.00000817,-0.00000954,0.00002042,0.00000023,-0.00000836,0
 .00003826,0.00003615,-0.00002138,-0.18513890,-0.12805082,0.02585847,0.
 19443906,-0.00088951,-0.00005602,-0.00014008,0.00026154,0.00008810,-0.
 00028750,0.00054632,-0.00151394,0.00251727,0.00101594,0.00128253,-0.00
 087191,0.00008840,0.00001152,0.00002292,-0.00018307,0.00015329,-0.0002
 3730,0.00060520,0.00018061,0.00044120,0.00051245,0.00021387,0.00016461
 ,-0.00062185,-0.00010719,0.00033140,0.00011910,-0.00010742,-0.00013049
 ,-0.00003288,0.00002617,-0.00002386,0.00000399,0.00000665,0.00002706,-
 0.00008924,0.00043633,-0.00029854,0.00030017,-0.00016171,0.00015875,-0
 .00001393,-0.00014538,0.00002324,-0.00003602,0.00004004,0.00002341,0.0
 0001035,0.00006988,-0.00012103,0.00005811,-0.00000313,0.00001190,-0.00
 049191,0.00031049,-0.00027446,-0.00008369,0.00000197,0.00007016,0.0000
 3069,-0.00001474,0.00000018,0.00001009,-0.00001124,0.00001432,0.000099
 58,0.00004837,0.00003697,-0.00004203,0.00003460,0.00001420,0.00002181,
 -0.00003968,0.00000455,-0.00017468,-0.00000078,-0.00003223,-0.13154091
 ,-0.17445283,0.03047033,0.14100835,0.18614322,0.00075679,-0.00074643,-
 0.00109220,0.00039976,0.00013445,-0.00002719,-0.00055986,-0.00088933,0
 .00191667,0.00030146,0.00051039,0.00064327,0.00013097,0.00002143,0.000
 16006,-0.00021039,0.00015259,-0.00033113,-0.00003540,0.00011716,0.0003
 9687,0.00024814,0.00073972,0.00043474,-0.00056260,-0.00015066,0.000152
 90,0.00005864,0.00008802,0.00000003,-0.00001150,0.00000146,-0.00002320
 ,0.00001411,-0.00002837,0.00002844,-0.00017852,0.00105155,-0.00117019,
 -0.00011299,0.00003850,-0.00003903,0.00004255,-0.00004127,-0.00000696,
 -0.00000638,0.00001217,0.00000274,0.00004275,0.00001417,0.00002427,-0.
 00002040,0.00001467,-0.00000049,0.00014180,-0.00001783,0.00006157,-0.0
 0010873,-0.00002571,0.00005659,0.00003344,-0.00005907,-0.00002596,0.00
 000393,0.00000794,0.00000605,0.00002362,-0.00003641,0.00001757,-0.0000
 0851,0.00001128,-0.00000640,0.00001897,0.00000781,-0.00000841,-0.00010
 243,0.00006990,-0.00000298,0.01924954,0.02500556,-0.04680944,-0.027917
 26,-0.02588004,0.05318049,-0.00018734,-0.00006330,-0.00014181,0.000101
 17,0.00002364,0.00032141,0.00047803,-0.00003395,-0.00080773,-0.0000924
 3,-0.00036215,0.00040266,-0.00000666,0.00000952,-0.00001241,-0.0001136
 0,0.00000169,0.00117348,0.00005771,-0.00001752,0.00010839,-0.00008157,
 -0.00005076,0.00000841,0.00019601,-0.00005271,-0.00023068,-0.00001591,
 0.00010321,0.00006556,0.00001001,-0.00002108,-0.00000177,-0.00000153,-
 0.00001043,0.00000409,-0.00039568,0.00015112,0.00007022,0.00000934,-0.
 00000128,-0.00001701,-0.00000463,-0.00003591,0.00001232,-0.00001362,0.
 00001316,0.00001072,0.00001838,0.00001185,-0.00004688,0.00002607,-0.00
 000231,0.00000163,0.00002270,-0.00000604,-0.00001233,-0.00002942,-0.00
 001381,0.00000044,0.00000412,0.00000221,-0.00001081,0.00000389,-0.0000
 0070,-0.00000276,0.00003743,0.00000367,0.00001329,-0.00001056,0.000008
 06,0.00000825,0.00001326,-0.00001718,-0.00000100,-0.00001086,-0.000028
 81,-0.00003716,-0.26444765,0.10012184,0.02286568,-0.01935326,0.0102989
 2,0.00095221,0.28226813,-0.00032175,-0.00034547,0.00003765,-0.00005950
 ,-0.00022464,0.00004898,-0.00097675,0.00002618,0.00250240,0.00046706,0
 .00032024,-0.00017615,-0.00000564,-0.00001693,-0.00005301,-0.00033626,
 0.00071469,-0.00118316,0.00020568,0.00017814,0.00009726,0.00017190,0.0
 0014310,-0.00008882,-0.00010179,-0.00002269,0.00039688,0.00000389,-0.0
 0006847,-0.00010739,-0.00001308,0.00002910,-0.00000416,0.00000266,0.00
 000696,0.00000501,-0.00005400,0.00005721,-0.00007933,0.00009657,-0.000
 05666,0.00006266,-0.00000576,-0.00004846,-0.00000704,-0.00000782,0.000
 01519,0.00000641,-0.00000513,-0.00001033,-0.00004779,0.00001305,-0.000
 00174,0.00000943,-0.00021836,0.00015460,-0.00011056,-0.00019208,-0.000
 02521,0.00012197,0.00006115,-0.00003650,-0.00002684,0.00005052,-0.0000
 0355,-0.00001095,0.00005016,0.00001958,0.00009385,-0.00002508,0.000029
 24,-0.00001028,0.00005917,-0.00002610,-0.00000870,-0.00015219,-0.00001
 322,-0.00012102,0.10480141,-0.09681920,-0.00670039,-0.02093361,0.01208
 537,0.00230184,-0.11046562,0.10186080,0.00022802,-0.00027262,-0.000071
 07,-0.00067443,0.00016203,0.00056227,0.00164883,-0.00109099,0.00184844
 ,-0.00026784,0.00069864,-0.00023458,0.00005227,-0.00002259,0.00002382,
 -0.00108936,0.00082207,-0.00015196,-0.00018692,0.00007388,0.00001195,-
 0.00034570,0.00007386,-0.00006019,0.00048867,0.00013619,-0.00006687,-0
 .00013151,0.00018915,0.00012876,0.00002731,-0.00001486,0.00002530,0.00
 000588,-0.00004595,0.00001661,0.00032195,0.00001354,-0.00013276,-0.000
 10498,0.00005524,-0.00008137,-0.00001347,0.00000499,-0.00002505,0.0000
 0329,0.00000756,0.00000911,-0.00000164,-0.00001755,-0.00000066,0.00001
 276,-0.00000390,0.00000371,0.00020988,-0.00011437,0.00012855,-0.000249
 55,-0.00001550,0.00015156,0.00005399,-0.00004467,-0.00004457,0.0000439
 3,0.00000254,-0.00003295,0.00003415,-0.00000536,0.00010430,-0.00003156
 ,0.00003273,-0.00000200,0.00009597,-0.00003603,-0.00002058,-0.00017275
 ,-0.00001685,-0.00014878,0.03043343,-0.00817253,-0.04650756,0.00473472
 ,-0.00147026,-0.00013542,-0.02546617,0.01358667,0.05036839,0.00010462,
 -0.00002037,-0.00013897,0.00019897,0.00032151,0.00013289,-0.00074970,-
 0.00050636,-0.00036158,0.00014844,-0.00016987,0.00000517,-0.00000523,-
 0.00001045,0.00002200,0.00022820,-0.00017455,0.00044568,-0.00001803,0.
 00004078,0.00008040,-0.00006346,0.00009539,0.00000440,0.00003030,-0.00
 000557,-0.00010361,0.00001862,0.00003163,0.00001584,0.00001121,-0.0000
 1584,0.00000269,-0.00000005,0.00000260,0.00000772,-0.00012512,0.000268
 36,-0.00022776,-0.00008534,0.00003335,-0.00003598,0.00002746,0.0000247
 0,-0.00000600,0.00000680,-0.00000442,-0.00001025,0.00001503,-0.0000391
 5,0.00003312,-0.00003560,0.00000357,-0.00000052,0.00014049,-0.00006879
 ,0.00008747,-0.00000645,-0.00000580,0.00001740,0.00000356,-0.00002284,
 -0.00000838,-0.00000073,0.00000801,-0.00000496,-0.00003473,-0.00001769
 ,0.00000203,0.00001984,-0.00000984,-0.00002007,-0.00001212,0.00002641,
 -0.00000296,-0.00001210,0.00002997,0.00005821,-0.05856649,0.02910232,-
 0.04509685,0.00556510,-0.01257062,0.02101171,-0.00509609,0.01547094,-0
 .02571329,0.05832587,0.00023009,-0.00057441,-0.00065672,0.00035486,0.0
 0062797,-0.00285706,0.00102366,-0.00537971,0.00045656,0.00002176,0.000
 75715,0.00019821,-0.00006521,-0.00000767,-0.00008521,-0.00027403,0.000
 10589,0.00009019,0.00012295,0.00019807,0.00029348,0.00090627,0.0006305
 6,0.00051282,-0.00217885,0.00005350,0.00069492,0.00038166,-0.00066742,
 -0.00036485,-0.00009342,0.00006329,-0.00003180,0.00001691,0.00011595,-
 0.00002267,0.00020966,0.00028380,-0.00030431,0.00037971,-0.00017008,0.
 00022198,-0.00001815,-0.00006657,0.00001692,-0.00000631,-0.00000136,-0
 .00000328,0.00000721,0.00001662,-0.00002945,0.00000331,0.00001875,0.00
 000465,-0.00056646,0.00031800,-0.00027928,0.00006614,-0.00000861,-0.00
 004200,0.00001921,-0.00002471,0.00002329,-0.00001760,0.00000174,0.0000
 0874,0.00005035,0.00002321,-0.00002026,-0.00000043,-0.00000397,-0.0000
 0584,-0.00001852,-0.00000417,0.00001598,0.00005315,0.00000230,-0.00003
 210,0.02846508,-0.11923047,0.11985369,0.00581889,-0.01134077,0.0185643
 0,0.00159992,-0.00705699,0.01139823,-0.03171563,0.13135537,-0.00009433
 ,-0.00059930,-0.00041575,0.00054174,0.00082545,-0.00292343,0.00159413,
 -0.00478019,0.00034723,-0.00012922,0.00014463,0.00046726,-0.00003584,-
 0.00007522,-0.00004045,-0.00000441,-0.00001950,0.00042682,0.00031102,0
 .00022722,0.00019548,0.00090471,0.00046707,0.00046565,-0.00233483,0.00
 019823,0.00083703,0.00042956,-0.00083435,-0.00048767,-0.00011252,0.000
 07259,-0.00003247,0.00001242,0.00015118,-0.00002181,0.00003293,-0.0000
 4699,0.00003330,0.00048535,-0.00022947,0.00028329,-0.00004302,-0.00009
 993,0.00002304,-0.00001197,0.00000440,0.00000639,-0.00003690,0.0000564
 1,-0.00007176,0.00004340,0.00001095,0.00000809,-0.00079961,0.00043607,
 -0.00042546,0.00001309,0.00001582,-0.00001208,0.00001902,0.00000965,0.
 00003382,0.00000516,-0.00001362,0.00001215,0.00014525,0.00004509,-0.00
 000578,-0.00002436,0.00001091,0.00000669,0.00000936,-0.00003435,0.0000
 1773,-0.00005811,-0.00000111,-0.00008468,-0.04658451,0.12710781,-0.232
 60477,-0.00048209,0.00212550,-0.00211563,0.00067448,-0.00207707,0.0046
 3459,0.04961014,-0.12995992,0.24806793,0.00136327,-0.00318837,-0.00142
 649,0.00292328,-0.00553874,-0.00952987,-0.03403934,0.00997640,0.017395
 15,0.00793063,-0.00663549,0.00798157,-0.00042223,0.00069899,-0.0006073
 9,-0.00454562,0.01391195,-0.01751601,0.00119845,0.00055649,0.00036381,
 0.00401329,0.00191109,0.00048268,-0.00518068,-0.00139535,0.00370815,0.
 00068177,-0.00076411,-0.00080662,-0.00024673,0.00025498,-0.00015423,0.
 00002151,0.00019072,-0.00003021,-0.00022255,0.00069597,-0.00021190,0.0
 0151379,-0.00056990,0.00067502,-0.00010459,-0.00050583,0.00008362,-0.0
 0011985,0.00006594,0.00002366,0.00010428,0.00041065,-0.00025105,0.0000
 7591,0.00006182,0.00001188,-0.00254756,0.00205758,-0.00112213,-0.00033
 432,-0.00099588,-0.00039292,0.00010239,0.00006927,0.00000886,-0.000282
 41,-0.00003861,0.00024831,-0.00023897,0.00061422,-0.00006325,-0.000255
 53,0.00019550,0.00011032,-0.00024669,0.00001085,0.00012709,-0.00001194
 ,-0.00079384,-0.00004504,-0.03836437,0.00258780,-0.00397443,0.00498754
 ,-0.00822067,-0.01359543,0.00661457,0.01242024,0.01605412,-0.00003327,
 -0.00477620,-0.00408006,0.05566596,0.01013745,-0.00510928,-0.00903054,
 -0.00048138,0.01587284,-0.00136493,0.00831023,-0.03468787,-0.04059041,
 -0.01455283,-0.02961504,0.02893529,0.00019159,-0.00096386,0.00073049,0
 .00978390,-0.01246875,0.01752462,-0.00284649,0.00060996,0.00108637,-0.
 00354477,0.00348200,0.00488034,-0.00294874,0.00179646,-0.00358405,0.00
 101016,-0.00168833,-0.00053728,-0.00021835,-0.00026578,-0.00004592,0.0
 0012697,0.00021146,-0.00005613,-0.00041825,0.00046748,0.00117532,-0.00
 141938,0.00077659,-0.00105045,0.00015408,0.00014419,-0.00018564,0.0000
 4588,0.00002060,0.00001811,0.00007074,-0.00013790,0.00025316,-0.000134
 05,-0.00001598,-0.00001737,0.00371994,-0.00213561,0.00234753,-0.000188
 92,-0.00028725,-0.00011110,-0.00003633,-0.00022464,-0.00022111,-0.0001
 4511,0.00011293,-0.00017652,0.00019740,-0.00013515,0.00020288,-0.00000
 747,0.00001352,-0.00003662,0.00030775,-0.00001352,-0.00014909,-0.00059
 295,-0.00023475,0.00007378,0.00580928,-0.09676426,-0.03429359,0.002204
 09,-0.01317816,-0.02098980,-0.00116525,-0.01086423,-0.01591328,-0.0001
 0174,0.00996475,0.00686204,-0.01326747,0.17531759,-0.00504335,-0.00000
 814,0.00171519,-0.00395061,-0.00522620,-0.03355328,-0.00022563,-0.0008
 1022,0.01288882,0.00788942,0.02395622,-0.01534950,-0.00059526,0.001256
 83,-0.00116535,-0.00430631,0.00608248,-0.00705734,0.00164377,0.0002150
 3,0.00032187,0.00738012,0.00074431,-0.00085053,-0.00932950,0.00007680,
 0.00575733,0.00131592,-0.00308633,-0.00139141,-0.00030023,0.00049238,0
 .00019250,0.00001486,0.00062857,-0.00011834,0.00012750,-0.00151576,-0.
 00048594,0.00264063,-0.00131322,0.00168656,-0.00023957,-0.00046379,0.0
 0021789,-0.00007339,0.00000264,-0.00001023,-0.00013564,0.00023194,-0.0
 0035662,0.00018345,0.00007631,0.00004908,-0.00506094,0.00316064,-0.003
 52600,0.00001657,-0.00015191,0.00010384,0.00040142,-0.00000307,0.00014
 572,0.00026443,-0.00010975,0.00005564,0.00035222,0.00036543,0.00019009
 ,-0.00014424,0.00008079,0.00002841,-0.00020175,-0.00006945,0.00015258,
 0.00097836,-0.00039347,-0.00081874,0.00168277,-0.05567512,-0.08551146,
 -0.00210739,-0.00669026,-0.00528763,0.00009530,-0.00845837,-0.01030100
 ,0.00019429,-0.01765922,-0.01662477,0.00653278,0.06426391,0.15890264\\
 0.00000617,0.00000111,0.00000021,0.00000348,0.00000482,-0.00000683,0.0
 0000154,0.00000324,-0.00000408,0.00000421,0.00000353,-0.00000459,0.000
 00205,0.00000641,-0.00000833,0.00000180,0.00000635,-0.00000833,0.00000
 676,-0.00000446,0.00000303,0.00000708,-0.00000028,-0.00000067,0.000004
 55,0.00000220,-0.00000338,0.00000630,0.00000239,-0.00000343,0.00000868
 ,0.00000129,-0.00000240,0.00000604,0.00000420,-0.00000572,0.00000399,0
 .00000253,-0.00000279,-0.00000343,-0.00000589,0.00000697,-0.00000362,-
 0.00000541,0.00000749,-0.00000008,-0.00000781,0.00000999,0.00000175,-0
 .00000444,0.00000417,-0.00000508,-0.00000654,0.00000898,0.00000058,-0.
 00000184,0.00000207,-0.00000033,-0.00000130,0.00000191,0.00000406,-0.0
 0000263,0.00000501,0.00000263,-0.00000331,0.00000379,-0.00000765,-0.00
 000353,0.00000517,-0.00000818,-0.00000306,0.00000460,-0.00000978,-0.00
 000485,0.00000708,-0.00000711,-0.00000197,0.00000307,-0.00000561,0.000
 00382,-0.00000519,-0.00000334,0.00000206,-0.00000340,-0.00000454,0.000
 00574,-0.00000671,-0.00000840,0.00000348,-0.00000349,-0.00000449,0.000
 00415,-0.00000422\\\@


 TIME IS NATURE'S WAY OF MAKING SURE EVERYTHING
 DOESN'T HAPPEN AT ONCE.
                     - WOODY ALLEN
 Job cpu time:       0 days  0 hours 40 minutes 56.4 seconds.
 File lengths (MBytes):  RWF=    255 Int=      0 D2E=      0 Chk=      6 Scr=      1
 Normal termination of Gaussian 09 at Fri Feb 12 10:57:01 2021.
