 Entering Gaussian System, Link 0=g09
 Initial command:
 /opt/software/gaussian/g09.e01/l1.exe "/localscratch/enas93.66158420.0/Gau-6244.inp" -scrdir="/localscratch/enas93.66158420.0/"
 Entering Link 1 = /opt/software/gaussian/g09.e01/l1.exe PID=      6245.
  
 Copyright (c) 1988,1990,1992,1993,1995,1998,2003,2009,2015,
            Gaussian, Inc.  All Rights Reserved.
  
 This is part of the Gaussian(R) 09 program.  It is based on
 the Gaussian(R) 03 system (copyright 2003, Gaussian, Inc.),
 the Gaussian(R) 98 system (copyright 1998, Gaussian, Inc.),
 the Gaussian(R) 94 system (copyright 1995, Gaussian, Inc.),
 the Gaussian 92(TM) system (copyright 1992, Gaussian, Inc.),
 the Gaussian 90(TM) system (copyright 1990, Gaussian, Inc.),
 the Gaussian 88(TM) system (copyright 1988, Gaussian, Inc.),
 the Gaussian 86(TM) system (copyright 1986, Carnegie Mellon
 University), and the Gaussian 82(TM) system (copyright 1983,
 Carnegie Mellon University). Gaussian is a federally registered
 trademark of Gaussian, Inc.
  
 This software contains proprietary and confidential information,
 including trade secrets, belonging to Gaussian, Inc.
  
 This software is provided under written license and may be
 used, copied, transmitted, or stored only in accord with that
 written license.
  
 The following legend is applicable only to US Government
 contracts under FAR:
  
                    RESTRICTED RIGHTS LEGEND
  
 Use, reproduction and disclosure by the US Government is
 subject to restrictions as set forth in subparagraphs (a)
 and (c) of the Commercial Computer Software - Restricted
 Rights clause in FAR 52.227-19.
  
 Gaussian, Inc.
 340 Quinnipiac St., Bldg. 40, Wallingford CT 06492
  
  
 ---------------------------------------------------------------
 Warning -- This program may not be used in any manner that
 competes with the business of Gaussian, Inc. or will provide
 assistance to any competitor of Gaussian, Inc.  The licensee
 of this program is prohibited from giving any competitor of
 Gaussian, Inc. access to this program.  By using this program,
 the user acknowledges that Gaussian, Inc. is engaged in the
 business of creating and licensing software in the field of
 computational chemistry and represents and warrants to the
 licensee that it is not a competitor of Gaussian, Inc. and that
 it will not use this program in any manner prohibited above.
 ---------------------------------------------------------------
  

 Cite this work as:
 Gaussian 09, Revision E.01,
 M. J. Frisch, G. W. Trucks, H. B. Schlegel, G. E. Scuseria, 
 M. A. Robb, J. R. Cheeseman, G. Scalmani, V. Barone, B. Mennucci, 
 G. A. Petersson, H. Nakatsuji, M. Caricato, X. Li, H. P. Hratchian, 
 A. F. Izmaylov, J. Bloino, G. Zheng, J. L. Sonnenberg, M. Hada, 
 M. Ehara, K. Toyota, R. Fukuda, J. Hasegawa, M. Ishida, T. Nakajima, 
 Y. Honda, O. Kitao, H. Nakai, T. Vreven, J. A. Montgomery, Jr., 
 J. E. Peralta, F. Ogliaro, M. Bearpark, J. J. Heyd, E. Brothers, 
 K. N. Kudin, V. N. Staroverov, T. Keith, R. Kobayashi, J. Normand, 
 K. Raghavachari, A. Rendell, J. C. Burant, S. S. Iyengar, J. Tomasi, 
 M. Cossi, N. Rega, J. M. Millam, M. Klene, J. E. Knox, J. B. Cross, 
 V. Bakken, C. Adamo, J. Jaramillo, R. Gomperts, R. E. Stratmann, 
 O. Yazyev, A. J. Austin, R. Cammi, C. Pomelli, J. W. Ochterski, 
 R. L. Martin, K. Morokuma, V. G. Zakrzewski, G. A. Voth, 
 P. Salvador, J. J. Dannenberg, S. Dapprich, A. D. Daniels, 
 O. Farkas, J. B. Foresman, J. V. Ortiz, J. Cioslowski, 
 and D. J. Fox, Gaussian, Inc., Wallingford CT, 2013.
 
 ******************************************
 Gaussian 09:  EM64L-G09RevE.01 30-Nov-2015
                 9-Apr-2021 
 ******************************************
 %nprocshared=32
 Will use up to   32 processors via shared memory.
 %mem=20GB
 -----------------------------------------------------
 # opt=(tight,modredundant) freq b3lyp/6-31g(d) nosymm
 -----------------------------------------------------
 1/7=10,14=-1,18=120,19=15,26=3,38=1/1,3;
 2/9=110,12=2,15=1,17=6,18=5,40=1/2;
 3/5=1,6=6,7=1,11=2,16=1,25=1,30=1,71=1,74=-5/1,2,3;
 4//1;
 5/5=2,38=5/2;
 6/7=2,8=2,9=2,10=2,28=1/1;
 7/30=1/1,2,3,16;
 1/7=10,14=-1,18=20,19=15,26=3/3(2);
 2/9=110,15=1/2;
 99//99;
 2/9=110,15=1/2;
 3/5=1,6=6,7=1,11=2,16=1,25=1,30=1,71=1,74=-5/1,2,3;
 4/5=5,16=3,69=1/1;
 5/5=2,38=5/2;
 7/30=1/1,2,3,16;
 1/7=10,14=-1,18=20,19=15,26=3/3(-5);
 2/9=110,15=1/2;
 6/7=2,8=2,9=2,10=2,19=2,28=1/1;
 99/9=1/99;
 -------------------
 Title Card Required
 -------------------
 Symbolic Z-matrix:
 Charge =  0 Multiplicity = 1
 C                    -2.346    -2.67431  -1.09886 
 O                    -2.49741  -2.17445   0.00213 
 O                    -3.34293  -2.91782  -1.9477 
 O                    -1.19721  -3.04085  -1.62818 
 H                    -4.15463  -2.55066  -1.53733 
 C                     2.1178    0.71344   0.36862 
 C                     3.3592   -1.81745   0.26162 
 C                     4.06549  -0.70547   0.52401 
 N                     3.46672   0.522     0.57607 
 H                     3.83191  -2.78928   0.21694 
 H                     5.13374  -0.71106   0.70603 
 O                     1.61322   1.82819   0.41935 
 N                     1.38837  -0.42999   0.10275 
 C                     1.93061  -1.71598   0.01607 
 N                     1.14067  -2.69111  -0.26864 
 H                    -0.44123  -2.85411  -0.99655 
 H                     1.65586  -3.56882  -0.29412 
 H                     4.00697   1.36937   0.76111 
 S                    -5.54539  -1.11334  -0.32858 
 C                    -7.34126  -1.2322   -0.54435 
 H                    -7.6703   -2.27408  -0.52789 
 H                    -7.86006  -0.67195   0.23718 
 H                    -7.58882  -0.7965   -1.51392 
 C                    -5.39612  -1.90936   1.29186 
 H                    -5.86724  -1.2984    2.06513 
 H                    -5.8526   -2.90239   1.27498 
 H                    -4.32723  -2.00688   1.48351 
 C                    -0.05643  -0.30449  -0.08797 
 H                    -0.57833  -0.98538   0.58434 
 H                    -0.31463  -0.5745   -1.11537 
 H                    -0.3328    0.72751   0.10902 
 N                     1.9556    4.52484   1.90359 
 H                     2.7568    4.52562   2.53506 
 C                     2.4564    4.67878   0.55373 
 H                     1.61699   4.51962  -0.13437 
 C                     3.02947   6.08438   0.35291 
 C                     3.54693   3.66657   0.21936 
 H                     3.87178   6.24092   1.03452 
 H                     3.38585   6.23517  -0.67069 
 H                     2.25695   6.8212    0.57992 
 O                     4.3212    3.23183   1.04312 
 O                     3.67476   3.29243  -1.06412 
 H                     1.54603   3.59361   1.97465 
 H                     2.90139   3.58696  -1.56974 
 
 Add virtual bond connecting atoms H16        and N15        Dist= 3.31D+00.
 Add virtual bond connecting atoms O41        and H18        Dist= 3.61D+00.
 Add virtual bond connecting atoms S19        and H5         Dist= 4.42D+00.
 Add virtual bond connecting atoms H27        and O2         Dist= 4.46D+00.
 The following ModRedundant input section has been read:
 A      13      28      19 F                                                   
 

 GradGradGradGradGradGradGradGradGradGradGradGradGradGradGradGradGradGrad
 Berny optimization.
 Initialization pass.
                           ----------------------------
                           !    Initial Parameters    !
                           ! (Angstroms and Degrees)  !
 --------------------------                            --------------------------
 ! Name  Definition              Value          Derivative Info.                !
 --------------------------------------------------------------------------------
 ! R1    R(1,2)                  1.2186         estimate D2E/DX2                !
 ! R2    R(1,3)                  1.3318         estimate D2E/DX2                !
 ! R3    R(1,4)                  1.3169         estimate D2E/DX2                !
 ! R4    R(2,27)                 2.3603         estimate D2E/DX2                !
 ! R5    R(3,5)                  0.9808         estimate D2E/DX2                !
 ! R6    R(4,16)                 1.0027         estimate D2E/DX2                !
 ! R7    R(5,19)                 2.3369         estimate D2E/DX2                !
 ! R8    R(6,9)                  1.3781         estimate D2E/DX2                !
 ! R9    R(6,12)                 1.2247         estimate D2E/DX2                !
 ! R10   R(6,13)                 1.3821         estimate D2E/DX2                !
 ! R11   R(7,8)                  1.3432         estimate D2E/DX2                !
 ! R12   R(7,10)                 1.0816         estimate D2E/DX2                !
 ! R13   R(7,14)                 1.4531         estimate D2E/DX2                !
 ! R14   R(8,9)                  1.3667         estimate D2E/DX2                !
 ! R15   R(8,11)                 1.0837         estimate D2E/DX2                !
 ! R16   R(9,18)                 1.0218         estimate D2E/DX2                !
 ! R17   R(13,14)                1.3983         estimate D2E/DX2                !
 ! R18   R(13,28)                1.4627         estimate D2E/DX2                !
 ! R19   R(14,15)                1.2868         estimate D2E/DX2                !
 ! R20   R(15,16)                1.749          estimate D2E/DX2                !
 ! R21   R(15,17)                1.0181         estimate D2E/DX2                !
 ! R22   R(18,41)                1.9097         estimate D2E/DX2                !
 ! R23   R(19,20)                1.8127         estimate D2E/DX2                !
 ! R24   R(19,24)                1.8116         estimate D2E/DX2                !
 ! R25   R(20,21)                1.0927         estimate D2E/DX2                !
 ! R26   R(20,22)                1.0926         estimate D2E/DX2                !
 ! R27   R(20,23)                1.0914         estimate D2E/DX2                !
 ! R28   R(24,25)                1.0923         estimate D2E/DX2                !
 ! R29   R(24,26)                1.0931         estimate D2E/DX2                !
 ! R30   R(24,27)                1.0903         estimate D2E/DX2                !
 ! R31   R(28,29)                1.0899         estimate D2E/DX2                !
 ! R32   R(28,30)                1.0932         estimate D2E/DX2                !
 ! R33   R(28,31)                1.0864         estimate D2E/DX2                !
 ! R34   R(32,33)                1.0201         estimate D2E/DX2                !
 ! R35   R(32,34)                1.448          estimate D2E/DX2                !
 ! R36   R(32,43)                1.0198         estimate D2E/DX2                !
 ! R37   R(34,35)                1.097          estimate D2E/DX2                !
 ! R38   R(34,36)                1.5312         estimate D2E/DX2                !
 ! R39   R(34,37)                1.525          estimate D2E/DX2                !
 ! R40   R(36,38)                1.0948         estimate D2E/DX2                !
 ! R41   R(36,39)                1.0943         estimate D2E/DX2                !
 ! R42   R(36,40)                1.0914         estimate D2E/DX2                !
 ! R43   R(37,41)                1.2112         estimate D2E/DX2                !
 ! R44   R(37,42)                1.343          estimate D2E/DX2                !
 ! R45   R(42,44)                0.9698         estimate D2E/DX2                !
 ! A1    A(2,1,3)              123.9066         estimate D2E/DX2                !
 ! A2    A(2,1,4)              125.8536         estimate D2E/DX2                !
 ! A3    A(3,1,4)              110.2381         estimate D2E/DX2                !
 ! A4    A(1,2,27)             133.8298         estimate D2E/DX2                !
 ! A5    A(1,3,5)              106.5217         estimate D2E/DX2                !
 ! A6    A(1,4,16)             110.6509         estimate D2E/DX2                !
 ! A7    A(3,5,19)             159.9052         estimate D2E/DX2                !
 ! A8    A(9,6,12)             121.5661         estimate D2E/DX2                !
 ! A9    A(9,6,13)             115.5061         estimate D2E/DX2                !
 ! A10   A(12,6,13)            122.9279         estimate D2E/DX2                !
 ! A11   A(8,7,10)             121.4728         estimate D2E/DX2                !
 ! A12   A(8,7,14)             119.4827         estimate D2E/DX2                !
 ! A13   A(10,7,14)            119.0405         estimate D2E/DX2                !
 ! A14   A(7,8,9)              121.3715         estimate D2E/DX2                !
 ! A15   A(7,8,11)             123.1537         estimate D2E/DX2                !
 ! A16   A(9,8,11)             115.4748         estimate D2E/DX2                !
 ! A17   A(6,9,8)              123.2196         estimate D2E/DX2                !
 ! A18   A(6,9,18)             115.4394         estimate D2E/DX2                !
 ! A19   A(8,9,18)             121.3349         estimate D2E/DX2                !
 ! A20   A(6,13,14)            124.6195         estimate D2E/DX2                !
 ! A21   A(6,13,28)            118.3849         estimate D2E/DX2                !
 ! A22   A(14,13,28)           116.9913         estimate D2E/DX2                !
 ! A23   A(7,14,13)            115.7843         estimate D2E/DX2                !
 ! A24   A(7,14,15)            126.0141         estimate D2E/DX2                !
 ! A25   A(13,14,15)           118.2016         estimate D2E/DX2                !
 ! A26   A(14,15,16)           135.8842         estimate D2E/DX2                !
 ! A27   A(14,15,17)           110.3778         estimate D2E/DX2                !
 ! A28   A(16,15,17)           111.5271         estimate D2E/DX2                !
 ! A29   A(4,16,15)            164.0494         estimate D2E/DX2                !
 ! A30   A(9,18,41)            157.2908         estimate D2E/DX2                !
 ! A31   A(5,19,20)            119.1899         estimate D2E/DX2                !
 ! A32   A(5,19,24)             98.2431         estimate D2E/DX2                !
 ! A33   A(20,19,24)            99.1664         estimate D2E/DX2                !
 ! A34   A(19,20,21)           111.0419         estimate D2E/DX2                !
 ! A35   A(19,20,22)           110.5884         estimate D2E/DX2                !
 ! A36   A(19,20,23)           107.716          estimate D2E/DX2                !
 ! A37   A(21,20,22)           109.5811         estimate D2E/DX2                !
 ! A38   A(21,20,23)           109.0085         estimate D2E/DX2                !
 ! A39   A(22,20,23)           108.8461         estimate D2E/DX2                !
 ! A40   A(19,24,25)           110.6047         estimate D2E/DX2                !
 ! A41   A(19,24,26)           110.5468         estimate D2E/DX2                !
 ! A42   A(19,24,27)           106.1003         estimate D2E/DX2                !
 ! A43   A(25,24,26)           109.8127         estimate D2E/DX2                !
 ! A44   A(25,24,27)           110.3907         estimate D2E/DX2                !
 ! A45   A(26,24,27)           109.322          estimate D2E/DX2                !
 ! A46   A(2,27,24)            131.0001         estimate D2E/DX2                !
 ! A47   A(13,28,19)           165.7953         Frozen                          !
 ! A48   A(13,28,29)           109.812          estimate D2E/DX2                !
 ! A49   A(13,28,30)           109.5501         estimate D2E/DX2                !
 ! A50   A(13,28,31)           108.0082         estimate D2E/DX2                !
 ! A51   A(29,28,30)           108.1979         estimate D2E/DX2                !
 ! A52   A(29,28,31)           111.0864         estimate D2E/DX2                !
 ! A53   A(30,28,31)           110.1785         estimate D2E/DX2                !
 ! A54   A(33,32,34)           107.779          estimate D2E/DX2                !
 ! A55   A(33,32,43)           105.8427         estimate D2E/DX2                !
 ! A56   A(34,32,43)           107.5143         estimate D2E/DX2                !
 ! A57   A(32,34,35)           107.7385         estimate D2E/DX2                !
 ! A58   A(32,34,36)           110.4452         estimate D2E/DX2                !
 ! A59   A(32,34,37)           112.4053         estimate D2E/DX2                !
 ! A60   A(35,34,36)           109.7134         estimate D2E/DX2                !
 ! A61   A(35,34,37)           108.2615         estimate D2E/DX2                !
 ! A62   A(36,34,37)           108.2353         estimate D2E/DX2                !
 ! A63   A(34,36,38)           109.7285         estimate D2E/DX2                !
 ! A64   A(34,36,39)           111.7809         estimate D2E/DX2                !
 ! A65   A(34,36,40)           109.12           estimate D2E/DX2                !
 ! A66   A(38,36,39)           108.1855         estimate D2E/DX2                !
 ! A67   A(38,36,40)           108.5748         estimate D2E/DX2                !
 ! A68   A(39,36,40)           109.3929         estimate D2E/DX2                !
 ! A69   A(34,37,41)           123.1096         estimate D2E/DX2                !
 ! A70   A(34,37,42)           117.549          estimate D2E/DX2                !
 ! A71   A(41,37,42)           119.2837         estimate D2E/DX2                !
 ! A72   A(18,41,37)            98.3042         estimate D2E/DX2                !
 ! A73   A(37,42,44)           109.7401         estimate D2E/DX2                !
 ! D1    D(3,1,2,27)            22.3785         estimate D2E/DX2                !
 ! D2    D(4,1,2,27)          -158.1507         estimate D2E/DX2                !
 ! D3    D(2,1,3,5)              4.6997         estimate D2E/DX2                !
 ! D4    D(4,1,3,5)           -174.8431         estimate D2E/DX2                !
 ! D5    D(2,1,4,16)             0.0634         estimate D2E/DX2                !
 ! D6    D(3,1,4,16)           179.5952         estimate D2E/DX2                !
 ! D7    D(1,2,27,24)          -33.3775         estimate D2E/DX2                !
 ! D8    D(1,3,5,19)            36.8134         estimate D2E/DX2                !
 ! D9    D(1,4,16,15)         -176.5704         estimate D2E/DX2                !
 ! D10   D(3,5,19,20)          163.449          estimate D2E/DX2                !
 ! D11   D(3,5,19,24)          -91.1656         estimate D2E/DX2                !
 ! D12   D(12,6,9,8)          -179.8235         estimate D2E/DX2                !
 ! D13   D(12,6,9,18)           -0.7113         estimate D2E/DX2                !
 ! D14   D(13,6,9,8)             0.1626         estimate D2E/DX2                !
 ! D15   D(13,6,9,18)          179.2748         estimate D2E/DX2                !
 ! D16   D(9,6,13,14)           -1.0251         estimate D2E/DX2                !
 ! D17   D(9,6,13,28)          178.2015         estimate D2E/DX2                !
 ! D18   D(12,6,13,14)         178.9607         estimate D2E/DX2                !
 ! D19   D(12,6,13,28)          -1.8126         estimate D2E/DX2                !
 ! D20   D(10,7,8,9)           179.8042         estimate D2E/DX2                !
 ! D21   D(10,7,8,11)           -0.11           estimate D2E/DX2                !
 ! D22   D(14,7,8,9)             0.5385         estimate D2E/DX2                !
 ! D23   D(14,7,8,11)         -179.3757         estimate D2E/DX2                !
 ! D24   D(8,7,14,13)           -1.2692         estimate D2E/DX2                !
 ! D25   D(8,7,14,15)          178.7185         estimate D2E/DX2                !
 ! D26   D(10,7,14,13)         179.4471         estimate D2E/DX2                !
 ! D27   D(10,7,14,15)          -0.5652         estimate D2E/DX2                !
 ! D28   D(7,8,9,6)              0.0408         estimate D2E/DX2                !
 ! D29   D(7,8,9,18)          -179.0205         estimate D2E/DX2                !
 ! D30   D(11,8,9,6)           179.9612         estimate D2E/DX2                !
 ! D31   D(11,8,9,18)            0.8999         estimate D2E/DX2                !
 ! D32   D(6,9,18,41)            1.7718         estimate D2E/DX2                !
 ! D33   D(8,9,18,41)         -179.0978         estimate D2E/DX2                !
 ! D34   D(6,13,14,7)            1.563          estimate D2E/DX2                !
 ! D35   D(6,13,14,15)        -178.4257         estimate D2E/DX2                !
 ! D36   D(28,13,14,7)        -177.6734         estimate D2E/DX2                !
 ! D37   D(28,13,14,15)          2.3379         estimate D2E/DX2                !
 ! D38   D(6,13,28,29)        -126.278          estimate D2E/DX2                !
 ! D39   D(6,13,28,30)         115.0245         estimate D2E/DX2                !
 ! D40   D(6,13,28,31)          -4.9981         estimate D2E/DX2                !
 ! D41   D(14,13,28,29)         53.0077         estimate D2E/DX2                !
 ! D42   D(14,13,28,30)        -65.6897         estimate D2E/DX2                !
 ! D43   D(14,13,28,31)        174.2877         estimate D2E/DX2                !
 ! D44   D(7,14,15,16)        -160.5482         estimate D2E/DX2                !
 ! D45   D(7,14,15,17)           0.4351         estimate D2E/DX2                !
 ! D46   D(13,14,15,16)         19.4392         estimate D2E/DX2                !
 ! D47   D(13,14,15,17)       -179.5775         estimate D2E/DX2                !
 ! D48   D(14,15,16,4)         106.0989         estimate D2E/DX2                !
 ! D49   D(17,15,16,4)         -54.7321         estimate D2E/DX2                !
 ! D50   D(9,18,41,37)         -39.0362         estimate D2E/DX2                !
 ! D51   D(5,19,20,21)          45.1592         estimate D2E/DX2                !
 ! D52   D(5,19,20,22)         167.0361         estimate D2E/DX2                !
 ! D53   D(5,19,20,23)         -74.1318         estimate D2E/DX2                !
 ! D54   D(24,19,20,21)        -59.7032         estimate D2E/DX2                !
 ! D55   D(24,19,20,22)         62.1738         estimate D2E/DX2                !
 ! D56   D(24,19,20,23)       -178.9941         estimate D2E/DX2                !
 ! D57   D(5,19,24,25)         171.5879         estimate D2E/DX2                !
 ! D58   D(5,19,24,26)         -66.5666         estimate D2E/DX2                !
 ! D59   D(5,19,24,27)          51.8558         estimate D2E/DX2                !
 ! D60   D(20,19,24,25)        -66.9087         estimate D2E/DX2                !
 ! D61   D(20,19,24,26)         54.9367         estimate D2E/DX2                !
 ! D62   D(20,19,24,27)        173.3591         estimate D2E/DX2                !
 ! D63   D(19,24,27,2)         -26.6142         estimate D2E/DX2                !
 ! D64   D(25,24,27,2)        -146.4861         estimate D2E/DX2                !
 ! D65   D(26,24,27,2)          92.6154         estimate D2E/DX2                !
 ! D66   D(33,32,34,35)        171.2101         estimate D2E/DX2                !
 ! D67   D(33,32,34,36)        -68.9742         estimate D2E/DX2                !
 ! D68   D(33,32,34,37)         52.0179         estimate D2E/DX2                !
 ! D69   D(43,32,34,35)         57.5183         estimate D2E/DX2                !
 ! D70   D(43,32,34,36)        177.334          estimate D2E/DX2                !
 ! D71   D(43,32,34,37)        -61.6739         estimate D2E/DX2                !
 ! D72   D(32,34,36,38)         61.7837         estimate D2E/DX2                !
 ! D73   D(32,34,36,39)       -178.1936         estimate D2E/DX2                !
 ! D74   D(32,34,36,40)        -57.0641         estimate D2E/DX2                !
 ! D75   D(35,34,36,38)       -179.5976         estimate D2E/DX2                !
 ! D76   D(35,34,36,39)        -59.575          estimate D2E/DX2                !
 ! D77   D(35,34,36,40)         61.5545         estimate D2E/DX2                !
 ! D78   D(37,34,36,38)        -61.6596         estimate D2E/DX2                !
 ! D79   D(37,34,36,39)         58.363          estimate D2E/DX2                !
 ! D80   D(37,34,36,40)        179.4925         estimate D2E/DX2                !
 ! D81   D(32,34,37,41)        -31.6393         estimate D2E/DX2                !
 ! D82   D(32,34,37,42)        151.1489         estimate D2E/DX2                !
 ! D83   D(35,34,37,41)       -150.5253         estimate D2E/DX2                !
 ! D84   D(35,34,37,42)         32.2629         estimate D2E/DX2                !
 ! D85   D(36,34,37,41)         90.6127         estimate D2E/DX2                !
 ! D86   D(36,34,37,42)        -86.5991         estimate D2E/DX2                !
 ! D87   D(34,37,41,18)        125.6556         estimate D2E/DX2                !
 ! D88   D(42,37,41,18)        -57.1788         estimate D2E/DX2                !
 ! D89   D(34,37,42,44)        -12.8081         estimate D2E/DX2                !
 ! D90   D(41,37,42,44)        169.8695         estimate D2E/DX2                !
 --------------------------------------------------------------------------------
 Trust Radius=3.00D-01 FncErr=1.00D-07 GrdErr=1.00D-06
 Number of steps in this run=    218 maximum allowed number of steps=    264.
 GradGradGradGradGradGradGradGradGradGradGradGradGradGradGradGradGradGrad

                          Input orientation:                          
 ---------------------------------------------------------------------
 Center     Atomic      Atomic             Coordinates (Angstroms)
 Number     Number       Type             X           Y           Z
 ---------------------------------------------------------------------
      1          6           0       -2.345996   -2.674306   -1.098860
      2          8           0       -2.497410   -2.174452    0.002130
      3          8           0       -3.342929   -2.917815   -1.947696
      4          8           0       -1.197214   -3.040854   -1.628179
      5          1           0       -4.154635   -2.550662   -1.537334
      6          6           0        2.117795    0.713441    0.368623
      7          6           0        3.359203   -1.817448    0.261619
      8          6           0        4.065490   -0.705466    0.524007
      9          7           0        3.466722    0.521995    0.576066
     10          1           0        3.831908   -2.789280    0.216943
     11          1           0        5.133743   -0.711056    0.706032
     12          8           0        1.613222    1.828192    0.419347
     13          7           0        1.388368   -0.429994    0.102748
     14          6           0        1.930606   -1.715981    0.016068
     15          7           0        1.140674   -2.691109   -0.268637
     16          1           0       -0.441232   -2.854113   -0.996548
     17          1           0        1.655856   -3.568817   -0.294119
     18          1           0        4.006975    1.369369    0.761110
     19         16           0       -5.545393   -1.113340   -0.328583
     20          6           0       -7.341256   -1.232196   -0.544353
     21          1           0       -7.670298   -2.274079   -0.527886
     22          1           0       -7.860056   -0.671945    0.237177
     23          1           0       -7.588824   -0.796504   -1.513920
     24          6           0       -5.396116   -1.909359    1.291858
     25          1           0       -5.867235   -1.298403    2.065129
     26          1           0       -5.852599   -2.902385    1.274978
     27          1           0       -4.327228   -2.006878    1.483510
     28          6           0       -0.056426   -0.304485   -0.087965
     29          1           0       -0.578325   -0.985380    0.584339
     30          1           0       -0.314629   -0.574495   -1.115368
     31          1           0       -0.332802    0.727511    0.109022
     32          7           0        1.955599    4.524840    1.903590
     33          1           0        2.756803    4.525625    2.535061
     34          6           0        2.456398    4.678784    0.553725
     35          1           0        1.616989    4.519619   -0.134365
     36          6           0        3.029467    6.084380    0.352910
     37          6           0        3.546932    3.666565    0.219361
     38          1           0        3.871784    6.240920    1.034515
     39          1           0        3.385848    6.235165   -0.670694
     40          1           0        2.256953    6.821201    0.579924
     41          8           0        4.321199    3.231829    1.043118
     42          8           0        3.674756    3.292432   -1.064122
     43          1           0        1.546029    3.593606    1.974648
     44          1           0        2.901387    3.586964   -1.569739
 ---------------------------------------------------------------------
                    Distance matrix (angstroms):
                    1          2          3          4          5
     1  C    0.000000
     2  O    1.218589   0.000000
     3  O    1.331801   2.251513   0.000000
     4  O    1.316904   2.258112   2.172860   0.000000
     5  H    1.865133   2.293006   0.980849   2.999147   0.000000
     6  C    5.792734   5.456589   6.954916   5.391775   7.323279
     7  C    5.927428   5.873219   7.142160   5.082223   7.760902
     8  C    6.900520   6.745512   8.117172   6.146706   8.673196
     9  N    6.841740   6.570472   8.035734   6.269361   8.484855
    10  H    6.317520   6.362737   7.495363   5.362819   8.180421
    11  H    7.940937   7.802019   9.152378   7.138453   9.730920
    12  O    6.184889   5.752610   7.258850   5.983187   7.501409
    13  N    4.519543   4.260578   5.725273   4.061765   6.157271
    14  C    4.522253   4.451709   5.754211   3.773870   6.335606
    15  N    3.584190   3.684549   4.793050   2.726976   5.446982
    16  H    1.915966   2.384778   3.054273   1.002666   3.764823
    17  H    4.178825   4.391086   5.305278   3.193504   6.028601
    18  H    7.756999   7.445921   8.929651   7.227887   9.341379
    19  S    3.642263   3.244307   3.275440   4.930611   2.336917
    20  C    5.228746   4.964810   4.560406   6.495781   3.588721
    21  H    5.369766   5.200924   4.599606   6.610553   3.668156
    22  H    6.016586   5.574114   5.497457   7.313327   4.517589
    23  H    5.584412   5.488137   4.766104   6.775163   3.856329
    24  C    3.950178   3.183735   3.965762   5.238098   3.155451
    25  H    4.929813   4.047116   5.009729   6.203689   4.180776
    26  H    4.240683   3.661601   4.084643   5.488179   3.303920
    27  H    3.322556   2.360255   3.683996   4.533068   3.074246
    28  C    3.446751   3.076247   4.592297   3.340864   4.892985
    29  H    2.968213   2.331469   4.217646   3.082731   4.443152
    30  H    2.921632   2.928002   3.918484   2.669243   4.339232
    31  H    4.133314   3.621925   5.155517   4.238591   5.297482
    32  N    8.907644   8.265915   9.914631   8.924872   9.961809
    33  H    9.543739   8.883329  10.616338   9.498338  10.697019
    34  C    8.936552   8.474156   9.879151   8.814896  10.017144
    35  H    8.269707   7.858594   9.121644   8.204387   9.234113
    36  C   10.378720   9.943728  11.266753  10.249851  11.390711
    37  C    8.756195   8.408254   9.773453   8.420795  10.052563
    38  H   11.076702  10.604289  12.034454  10.905779  12.179069
    39  H   10.602643  10.285284  11.431720  10.390658  11.610371
    40  H   10.685041  10.191152  11.515033  10.680221  11.550890
    41  O    9.160895   8.763844  10.271414   8.771275  10.579967
    42  O    8.476593   8.313805   9.412533   8.010291   9.780851
    43  H    7.992561   7.315102   9.037992   8.032547   9.087553
    44  H    8.182925   8.050571   9.024771   7.792940   9.351949
                    6          7          8          9         10
     6  C    0.000000
     7  C    2.820983   0.000000
     8  C    2.414737   1.343202   0.000000
     9  N    1.378147   2.362928   1.366709   0.000000
    10  H    3.902595   1.081621   2.119229   3.350653   0.000000
    11  H    3.352459   2.137896   1.083665   2.077562   2.500599
    12  O    1.224678   4.045246   3.527605   2.272922   5.126849
    13  N    1.382099   2.415463   2.724028   2.334495   3.398552
    14  C    2.461996   1.453093   2.415962   2.771604   2.192549
    15  N    3.598865   2.442606   3.622929   4.055621   2.736451
    16  H    4.597799   4.135331   5.219130   5.398456   4.442577
    17  H    4.357792   2.505500   3.830724   4.557543   2.367291
    18  H    2.037962   3.290122   2.089158   1.021840   4.197753
    19  S    7.908709   8.951868   9.657243   9.203854   9.541496
    20  C    9.700138  10.746717  11.468770  11.006585  11.306798
    21  H   10.273060  11.067146  11.886789  11.535595  11.537805
    22  H   10.074427  11.277613  11.929042  11.394571  11.882152
    23  H   10.002117  11.137960  11.831503  11.328353  11.721782
    24  C    8.011885   8.816204   9.568748   9.218120   9.331995
    25  H    8.407518   9.415371  10.069045   9.625690   9.985584
    26  H    8.799026   9.330663  10.186211   9.953120   9.742787
    27  H    7.083885   7.785250   8.547048   8.244047   8.293844
    28  C    2.443744   3.752038   4.186345   3.679209   4.624534
    29  H    3.193993   4.037402   4.652635   4.316787   4.779037
    30  H    3.126931   4.115588   4.678691   4.285073   4.886112
    31  H    2.464349   4.486759   4.644417   3.833634   5.451997
    32  N    4.112079   6.700059   5.806117   4.479797   7.737032
    33  H    4.431087   6.765057   5.755112   4.513391   7.748378
    34  C    3.984076   6.565167   5.619627   4.277867   7.601147
    35  H    3.871795   6.584112   5.807764   4.461751   7.645213
    36  C    5.447787   7.909232   6.870562   5.584005   8.910906
    37  C    3.284152   5.487388   4.413204   3.165753   6.462132
    38  H    5.837201   8.111560   6.967813   5.751552   9.067223
    39  H    5.759998   8.106448   7.075421   5.848185   9.078958
    40  H    6.112998   8.714501   7.741101   6.414324   9.745439
    41  O    3.413533   5.199171   3.979592   2.879491   6.097190
    42  O    3.335878   5.288481   4.319492   3.226270   6.217157
    43  H    3.346877   5.958320   5.189804   3.883283   7.003999
    44  H    3.553646   5.724608   4.915675   3.783929   6.686897
                   11         12         13         14         15
    11  H    0.000000
    12  O    4.350177   0.000000
    13  N    3.804048   2.291331   0.000000
    14  C    3.427245   3.581135   1.398320   0.000000
    15  N    4.562367   4.595727   2.304760   1.286827   0.000000
    16  H    6.210621   5.305612   3.229898   2.818927   1.748957
    17  H    4.611160   5.444131   3.175100   1.898606   1.018054
    18  H    2.366603   2.461173   3.244727   3.792859   5.075780
    19  S   10.736676   7.775460   6.980691   7.508164   6.869967
    20  C   12.548333   9.511959   8.790256   9.301373   8.610899
    21  H   12.957973  10.193607   9.265947   9.632482   8.824645
    22  H   13.002314   9.799330   9.252565   9.848653   9.238291
    23  H   12.915076   9.762387   9.128961   9.685342   9.019113
    24  C   10.614003   7.991332   7.044979   7.439482   6.765789
    25  H   11.100164   8.272934   7.566297   8.073373   7.516441
    26  H   11.217189   8.879693   7.740700   7.973123   7.164723
    27  H    9.580898   7.150465   6.087783   6.434166   5.782399
    28  C    5.266269   2.755613   1.462721   2.439557   2.676129
    29  H    5.719946   3.570194   2.099587   2.674218   2.567496
    30  H    5.746382   3.441637   2.098782   2.761199   2.704610
    31  H    5.684102   2.257169   2.074195   3.332013   3.741754
    32  N    6.240942   3.097113   5.302373   6.520062   7.579749
    33  H    6.034734   3.613885   5.687435   6.781266   7.909099
    34  C    6.020112   2.975715   5.238672   6.438832   7.531450
    35  H    6.358757   2.747797   4.960560   6.245294   7.227690
    36  C    7.122543   4.486123   6.722563   7.884579   8.997948
    37  C    4.681707   2.675602   4.631932   5.623668   6.815294
    38  H    7.073218   4.995168   7.178902   8.253344   9.430711
    39  H    7.293867   4.873582   7.000892   8.112342   9.213079
    40  H    8.063915   5.036895   7.318604   8.562004   9.615101
    41  O    4.039826   3.113266   4.784845   5.590223   6.849645
    42  O    4.614109   2.931655   4.521682   5.412307   6.546536
    43  H    5.745537   2.353755   4.440521   5.672358   6.685378
    44  H    5.351217   2.951120   4.606777   5.619468   6.648848
                   16         17         18         19         20
    16  H    0.000000
    17  H    2.324217   0.000000
    18  H    6.380729   5.570184   0.000000
    19  S    5.434053   7.608452   9.929703   0.000000
    20  C    7.102494   9.298948  11.715576   1.812680   0.000000
    21  H    7.267426   9.418500  12.300200   2.429456   1.092731
    22  H    7.830893   9.961261  12.052713   2.423340   1.092622
    23  H    7.455837   9.728193  12.013714   2.383489   1.091411
    24  C    5.538974   7.416160   9.972456   1.811563   2.759310
    25  H    6.421496   8.204738  10.311038   2.422331   2.997752
    26  H    5.868991   7.699552  10.757469   2.422079   2.883678
    27  H    4.687159   6.434043   9.021078   2.359241   3.714394
    28  C    2.733899   3.691920   4.475929   5.553459   7.357832
    29  H    2.451563   3.526670   5.157622   5.051887   6.860911
    30  H    2.286221   3.677394   5.096669   5.316980   7.080404
    31  H    3.749943   4.751391   4.435185   5.545389   7.306557
    32  N    8.282786   8.392083   3.933243   9.645546  11.205686
    33  H    8.784089   8.645018   3.830376  10.436706  12.025227
    34  C    8.218524   8.329624   3.660536   9.917451  11.495194
    35  H    7.703996   8.090107   4.054378   9.114146  10.653714
    36  C    9.683153   9.771881   4.832544  11.216052  12.723571
    37  C    7.739711   7.496038   2.404629  10.286793  11.963852
    38  H   10.268736  10.144286   4.881090  12.026072  13.567334
    39  H    9.867507   9.962567   5.109974  11.570853  13.070891
    40  H   10.167456  10.444029   5.728689  11.165076  12.579619
    41  O    7.992476   7.425701   1.909718  10.867920  12.588107
    42  O    7.397698   7.193441   2.672080  10.245145  11.920358
    43  H    7.372265   7.513965   3.532161   8.817510  10.421975
    44  H    7.279363   7.374534   3.401898   9.745841  11.366066
                   21         22         23         24         25
    21  H    0.000000
    22  H    1.785543   0.000000
    23  H    1.778238   1.776351   0.000000
    24  C    2.935369   2.952041   3.730791   0.000000
    25  H    3.305557   2.775823   4.003169   1.092322   0.000000
    26  H    2.636118   3.175181   3.902200   1.093052   1.788103
    27  H    3.910656   3.976967   4.592124   1.090304   1.792160
    28  C    7.876794   7.819040   7.681956   5.743851   6.276081
    29  H    7.293413   7.296737   7.320209   4.956353   5.501208
    30  H    7.572291   7.666312   7.288487   5.779110   6.439801
    31  H    7.953241   7.657314   7.589889   5.830037   6.209721
    32  N   12.033091  11.230788  11.449545   9.788812   9.753614
    33  H   12.819596  12.042122  12.318738  10.460624  10.417013
    34  C   12.331349  11.625822  11.625851  10.276694  10.358280
    35  H   11.513596  10.812251  10.719670   9.620266   9.731432
    36  C   13.606050  12.815734  12.789829  11.652121  11.687108
    37  C   12.715183  12.204194  12.121399  10.593360  10.802051
    38  H   14.427958  13.640364  13.688148  12.344523  12.359290
    39  H   13.952276  13.228861  13.061348  12.137041  12.241688
    40  H   13.509318  12.594387  12.623507  11.631810  11.581720
    41  O   13.288306  12.816863  12.830220  10.996358  11.196950
    42  O   12.648472  12.266277  11.991245  10.718675  11.041629
    43  H   11.208617  10.473212  10.718615   8.884942   8.882366
    44  H   12.132510  11.713749  11.369364  10.356006  10.675571
                   26         27         28         29         30
    26  H    0.000000
    27  H    1.781060   0.000000
    28  C    6.496331   4.858747   0.000000
    29  H    5.654189   3.988263   1.089949   0.000000
    30  H    6.465442   4.990675   1.093221   1.768436   0.000000
    31  H    6.708484   5.032051   1.086372   1.794493   1.787367
    32  N   10.794757   9.072691   5.597939   6.206748   6.345964
    33  H   11.440496   9.693444   6.174503   6.730496   6.983592
    34  C   11.270925   9.569752   5.617742   6.425981   6.169392
    35  H   10.623895   8.974765   5.106315   5.970004   5.535658
    36  C   12.668988  10.993984   7.108776   7.940480   7.594698
    37  C   11.515929   9.787156   5.371022   6.228286   5.888951
    38  H   13.349962  11.638366   7.715771   8.498561   8.282387
    39  H   13.138849  11.491884   7.413221   8.332229   7.762908
    40  H   12.680539  11.050017   7.521516   8.305512   8.011452
    41  O   11.882277  10.120933   5.740075   6.480792   6.374799
    42  O   11.602484   9.929998   5.273748   6.253463   5.556163
    43  H    9.870518   8.130300   4.692265   5.235738   5.512106
    44  H   11.262164   9.636715   5.107611   6.136349   5.278916
                   31         32         33         34         35
    31  H    0.000000
    32  N    4.782987   0.000000
    33  H    5.464155   1.020139   0.000000
    34  C    4.856949   1.447976   2.009824   0.000000
    35  H    4.270949   2.065900   2.902593   1.097000   0.000000
    36  C    6.329327   2.447441   2.695523   1.531155   2.163564
    37  C    4.868526   2.470952   2.593213   1.525009   2.139510
    38  H    6.995195   2.715140   2.537136   2.162116   3.068103
    39  H    6.691081   3.405549   3.687152   2.187556   2.521827
    40  H    6.637894   2.667617   3.056482   2.151840   2.493400
    41  O    5.366924   2.829903   2.519352   2.410533   3.218326
    42  O    4.900572   3.644399   3.913760   2.454342   2.569989
    43  H    3.901931   1.019801   1.627481   2.006341   2.304446
    44  H    4.631921   3.719965   4.213238   2.428824   2.140052
                   36         37         38         39         40
    36  C    0.000000
    37  C    2.476173   0.000000
    38  H    1.094800   2.719799   0.000000
    39  H    1.094307   2.723206   1.773106   0.000000
    40  H    1.091430   3.427212   1.775122   1.783785   0.000000
    41  O    3.206557   1.211223   3.042479   3.582187   4.166444
    42  O    3.196772   1.342998   3.624456   2.982940   4.143098
    43  H    3.321833   2.662699   3.647089   4.166606   3.587205
    44  H    3.154373   1.903666   3.842823   2.838301   3.936577
                   41         42         43         44
    41  O    0.000000
    42  O    2.204999   0.000000
    43  H    2.949610   3.722406   0.000000
    44  H    2.994830   0.969792   3.794696   0.000000
 Symmetry turned off by external request.
 Stoichiometry    C11H22N4O6S
 Framework group  C1[X(C11H22N4O6S)]
 Deg. of freedom   126
 Full point group                 C1      NOp   1
 Rotational constants (GHZ):      0.3258407      0.0870842      0.0728122
 Standard basis: 6-31G(d) (6D, 7F)
   378 basis functions,   728 primitive gaussians,   378 cartesian basis functions
    90 alpha electrons       90 beta electrons
       nuclear repulsion energy      1965.7275379384 Hartrees.
 NAtoms=   44 NActive=   44 NUniq=   44 SFac= 1.00D+00 NAtFMM=   60 NAOKFM=F Big=F
 Integral buffers will be    131072 words long.
 Raffenetti 2 integral format.
 Two-electron integral symmetry is turned off.
 One-electron integrals computed using PRISM.
 NBasis=   378 RedAO= T EigKep=  1.07D-03  NBF=   378
 NBsUse=   378 1.00D-06 EigRej= -1.00D+00 NBFU=   378
 ExpMin= 1.17D-01 ExpMax= 2.19D+04 ExpMxC= 3.30D+03 IAcc=1 IRadAn=         1 AccDes= 0.00D+00
 Harris functional with IExCor=  402 and IRadAn=       1 diagonalized for initial guess.
 HarFok:  IExCor=  402 AccDes= 0.00D+00 IRadAn=         1 IDoV= 1 UseB2=F ITyADJ=14
 ICtDFT=  3500011 ScaDFX=  1.000000  1.000000  1.000000  1.000000
 FoFCou: FMM=F IPFlag=           0 FMFlag=      100000 FMFlg1=           0
         NFxFlg=           0 DoJE=T BraDBF=F KetDBF=T FulRan=T
         wScrn=  0.000000 ICntrl=     500 IOpCl=  0 I1Cent=   200000004 NGrid=           0
         NMat0=    1 NMatS0=      1 NMatT0=    0 NMatD0=    1 NMtDS0=    0 NMtDT0=    0
 Symmetry not used in FoFCou.
 Keep R1 ints in memory in canonical form, NReq=2593217330.
 Requested convergence on RMS density matrix=1.00D-08 within 128 cycles.
 Requested convergence on MAX density matrix=1.00D-06.
 Requested convergence on             energy=1.00D-06.
 No special actions if energy rises.
 Integral accuracy reduced to 1.0D-05 until final iterations.
 Initial convergence to 1.0D-05 achieved.  Increase integral accuracy.
 SCF Done:  E(RB3LYP) =  -1501.02249805     A.U. after   15 cycles
            NFock= 15  Conv=0.60D-08     -V/T= 2.0073

 **********************************************************************

            Population analysis using the SCF density.

 **********************************************************************

 Alpha  occ. eigenvalues --  -88.87259 -19.20786 -19.16228 -19.15319 -19.14761
 Alpha  occ. eigenvalues --  -19.13675 -19.10605 -14.39889 -14.39724 -14.32167
 Alpha  occ. eigenvalues --  -14.31053 -10.34150 -10.33464 -10.32556 -10.28775
 Alpha  occ. eigenvalues --  -10.26695 -10.23215 -10.21157 -10.20842 -10.20645
 Alpha  occ. eigenvalues --  -10.19804 -10.18948  -7.93386  -5.89893  -5.89525
 Alpha  occ. eigenvalues --   -5.88862  -1.11760  -1.11132  -1.08095  -1.03213
 Alpha  occ. eigenvalues --   -1.01700  -0.99543  -0.98337  -0.96274  -0.89360
 Alpha  occ. eigenvalues --   -0.89246  -0.79731  -0.79612  -0.75217  -0.73392
 Alpha  occ. eigenvalues --   -0.70178  -0.67043  -0.65594  -0.65326  -0.63423
 Alpha  occ. eigenvalues --   -0.61971  -0.59630  -0.58193  -0.56203  -0.53430
 Alpha  occ. eigenvalues --   -0.51581  -0.50494  -0.49594  -0.49335  -0.48578
 Alpha  occ. eigenvalues --   -0.47176  -0.46767  -0.46242  -0.45545  -0.44935
 Alpha  occ. eigenvalues --   -0.44555  -0.44128  -0.43857  -0.43190  -0.42922
 Alpha  occ. eigenvalues --   -0.42442  -0.42252  -0.41299  -0.40765  -0.40454
 Alpha  occ. eigenvalues --   -0.39081  -0.38666  -0.38093  -0.37946  -0.36378
 Alpha  occ. eigenvalues --   -0.36180  -0.35738  -0.35172  -0.32979  -0.31512
 Alpha  occ. eigenvalues --   -0.30842  -0.29857  -0.29191  -0.28804  -0.28246
 Alpha  occ. eigenvalues --   -0.26899  -0.25588  -0.24166  -0.24039  -0.22525
 Alpha virt. eigenvalues --   -0.03773  -0.00151   0.00660   0.04775   0.05103
 Alpha virt. eigenvalues --    0.07390   0.07521   0.08644   0.09884   0.10102
 Alpha virt. eigenvalues --    0.10368   0.11439   0.13276   0.13407   0.13601
 Alpha virt. eigenvalues --    0.14111   0.14491   0.14901   0.15863   0.15981
 Alpha virt. eigenvalues --    0.16109   0.17354   0.17486   0.17660   0.17694
 Alpha virt. eigenvalues --    0.18599   0.19250   0.19564   0.20536   0.20842
 Alpha virt. eigenvalues --    0.21164   0.23442   0.23867   0.25394   0.25792
 Alpha virt. eigenvalues --    0.27537   0.28954   0.30962   0.33996   0.36104
 Alpha virt. eigenvalues --    0.37171   0.37724   0.38117   0.38841   0.39398
 Alpha virt. eigenvalues --    0.39734   0.40290   0.42712   0.46152   0.46782
 Alpha virt. eigenvalues --    0.47010   0.49017   0.49382   0.51122   0.51895
 Alpha virt. eigenvalues --    0.52822   0.52998   0.53286   0.53980   0.54481
 Alpha virt. eigenvalues --    0.55001   0.56532   0.57232   0.57728   0.58226
 Alpha virt. eigenvalues --    0.58803   0.59265   0.59956   0.60104   0.61355
 Alpha virt. eigenvalues --    0.62377   0.63313   0.64279   0.64815   0.65969
 Alpha virt. eigenvalues --    0.67131   0.67641   0.69309   0.72118   0.73268
 Alpha virt. eigenvalues --    0.73612   0.73915   0.74818   0.75355   0.76280
 Alpha virt. eigenvalues --    0.77803   0.78932   0.79928   0.80273   0.80600
 Alpha virt. eigenvalues --    0.81094   0.82187   0.82330   0.83623   0.83799
 Alpha virt. eigenvalues --    0.83957   0.84953   0.85909   0.86533   0.87114
 Alpha virt. eigenvalues --    0.87761   0.88296   0.88518   0.88734   0.89697
 Alpha virt. eigenvalues --    0.90017   0.90270   0.90785   0.91440   0.91613
 Alpha virt. eigenvalues --    0.92156   0.92678   0.93354   0.93921   0.95435
 Alpha virt. eigenvalues --    0.95996   0.96323   0.97316   0.97712   0.98860
 Alpha virt. eigenvalues --    0.98997   1.00374   1.00810   1.01702   1.03403
 Alpha virt. eigenvalues --    1.04222   1.05833   1.06179   1.07364   1.08683
 Alpha virt. eigenvalues --    1.09622   1.12102   1.12581   1.14189   1.15123
 Alpha virt. eigenvalues --    1.15954   1.16840   1.19193   1.21272   1.22295
 Alpha virt. eigenvalues --    1.23581   1.25072   1.25751   1.28254   1.30365
 Alpha virt. eigenvalues --    1.32013   1.33366   1.34591   1.34651   1.36717
 Alpha virt. eigenvalues --    1.37959   1.39147   1.39562   1.40015   1.41407
 Alpha virt. eigenvalues --    1.41611   1.43115   1.44485   1.44831   1.45434
 Alpha virt. eigenvalues --    1.46946   1.50010   1.52561   1.54513   1.58645
 Alpha virt. eigenvalues --    1.59649   1.62346   1.64520   1.67647   1.68275
 Alpha virt. eigenvalues --    1.68600   1.69005   1.69819   1.71028   1.71346
 Alpha virt. eigenvalues --    1.72925   1.74712   1.75124   1.75321   1.75581
 Alpha virt. eigenvalues --    1.76604   1.77259   1.78134   1.79933   1.80042
 Alpha virt. eigenvalues --    1.80619   1.82594   1.83915   1.85028   1.85489
 Alpha virt. eigenvalues --    1.87383   1.88374   1.89922   1.92168   1.92728
 Alpha virt. eigenvalues --    1.92925   1.94882   1.95380   1.95515   1.97575
 Alpha virt. eigenvalues --    1.99824   2.01178   2.01581   2.02795   2.05434
 Alpha virt. eigenvalues --    2.08479   2.09522   2.11170   2.12282   2.12800
 Alpha virt. eigenvalues --    2.13564   2.14973   2.16766   2.17182   2.17268
 Alpha virt. eigenvalues --    2.18455   2.19540   2.21409   2.21738   2.24047
 Alpha virt. eigenvalues --    2.24693   2.25765   2.26149   2.26663   2.29120
 Alpha virt. eigenvalues --    2.31239   2.33334   2.34214   2.35133   2.37219
 Alpha virt. eigenvalues --    2.39734   2.42272   2.43420   2.44381   2.48722
 Alpha virt. eigenvalues --    2.49110   2.50088   2.53849   2.54724   2.55782
 Alpha virt. eigenvalues --    2.59445   2.62049   2.63646   2.65142   2.66119
 Alpha virt. eigenvalues --    2.66821   2.68867   2.70709   2.71575   2.71752
 Alpha virt. eigenvalues --    2.76467   2.77245   2.78914   2.83394   2.84242
 Alpha virt. eigenvalues --    2.90297   2.91235   2.96155   2.98655   3.00936
 Alpha virt. eigenvalues --    3.04137   3.05431   3.07661   3.16526   3.23353
 Alpha virt. eigenvalues --    3.43232   3.78974   3.91108   3.92102   3.95704
 Alpha virt. eigenvalues --    4.00097   4.03356   4.04775   4.09082   4.11006
 Alpha virt. eigenvalues --    4.18645   4.20647   4.22544   4.23800   4.26262
 Alpha virt. eigenvalues --    4.28682   4.29033   4.29897   4.33859   4.36758
 Alpha virt. eigenvalues --    4.57068   4.61086   4.68082
          Condensed to atoms (all electrons):
               1          2          3          4          5          6
     1  C    4.108815   0.512745   0.347023   0.360573  -0.017367   0.000002
     2  O    0.512745   8.126540  -0.083568  -0.081037   0.001928   0.000001
     3  O    0.347023  -0.083568   8.218779  -0.091922   0.206780   0.000000
     4  O    0.360573  -0.081037  -0.091922   8.267997   0.003890  -0.000003
     5  H   -0.017367   0.001928   0.206780   0.003890   0.306969  -0.000000
     6  C    0.000002   0.000001   0.000000  -0.000003  -0.000000   4.161714
     7  C   -0.000003  -0.000000  -0.000000  -0.000030   0.000000  -0.016935
     8  C    0.000000   0.000000   0.000000   0.000000  -0.000000  -0.029432
     9  N    0.000000   0.000000  -0.000000   0.000000  -0.000000   0.301673
    10  H    0.000000  -0.000000  -0.000000   0.000000   0.000000   0.000470
    11  H   -0.000000  -0.000000  -0.000000  -0.000000   0.000000   0.002623
    12  O    0.000000  -0.000000   0.000000  -0.000000   0.000000   0.547243
    13  N    0.000051   0.000253   0.000000   0.000138  -0.000000   0.300384
    14  C   -0.000166  -0.000069  -0.000000  -0.000624   0.000000  -0.025557
    15  N   -0.000169  -0.000357  -0.000020  -0.037248   0.000003   0.001423
    16  H   -0.007570   0.005805   0.002657   0.169469  -0.000114  -0.000019
    17  H    0.000030   0.000005   0.000001   0.001791  -0.000000  -0.000058
    18  H    0.000000  -0.000000  -0.000000   0.000000   0.000000  -0.017931
    19  S   -0.001554   0.009620  -0.020271  -0.000075   0.065288   0.000000
    20  C    0.000036   0.000071   0.000045   0.000000  -0.001403   0.000000
    21  H    0.000004   0.000001   0.000027   0.000000  -0.000315  -0.000000
    22  H   -0.000001  -0.000000  -0.000002  -0.000000   0.000078   0.000000
    23  H    0.000001   0.000000   0.000003   0.000000  -0.000020  -0.000000
    24  C    0.000327  -0.009669  -0.000048  -0.000007  -0.002800  -0.000000
    25  H   -0.000011   0.000210  -0.000012   0.000000   0.000191  -0.000000
    26  H    0.000085   0.000053   0.000082   0.000000  -0.000546   0.000000
    27  H   -0.000054   0.018363   0.000042   0.000041  -0.000313   0.000000
    28  C    0.000445  -0.006527  -0.000057  -0.001159  -0.000001  -0.032577
    29  H    0.000746   0.018033   0.000147  -0.001357  -0.000004   0.001689
    30  H    0.000436  -0.001530  -0.000232   0.007795   0.000010   0.001011
    31  H    0.000083   0.000191  -0.000000   0.000092  -0.000000  -0.002802
    32  N    0.000000   0.000000   0.000000  -0.000000  -0.000000   0.000592
    33  H   -0.000000  -0.000000  -0.000000  -0.000000   0.000000   0.000039
    34  C   -0.000000  -0.000000  -0.000000   0.000000   0.000000  -0.000697
    35  H    0.000000   0.000000   0.000000  -0.000000   0.000000  -0.000023
    36  C   -0.000000  -0.000000  -0.000000  -0.000000   0.000000   0.000023
    37  C   -0.000000   0.000000  -0.000000  -0.000000  -0.000000   0.002213
    38  H   -0.000000  -0.000000   0.000000   0.000000   0.000000   0.000000
    39  H   -0.000000   0.000000  -0.000000   0.000000  -0.000000  -0.000001
    40  H   -0.000000   0.000000   0.000000  -0.000000  -0.000000  -0.000000
    41  O    0.000000  -0.000000   0.000000   0.000000   0.000000  -0.002741
    42  O   -0.000000  -0.000000   0.000000   0.000000  -0.000000   0.002691
    43  H   -0.000000  -0.000000  -0.000000  -0.000000   0.000000   0.000453
    44  H    0.000000   0.000000  -0.000000  -0.000000   0.000000  -0.000138
               7          8          9         10         11         12
     1  C   -0.000003   0.000000   0.000000   0.000000  -0.000000   0.000000
     2  O   -0.000000   0.000000   0.000000  -0.000000  -0.000000  -0.000000
     3  O   -0.000000   0.000000  -0.000000  -0.000000  -0.000000   0.000000
     4  O   -0.000030   0.000000   0.000000   0.000000  -0.000000  -0.000000
     5  H    0.000000  -0.000000  -0.000000   0.000000   0.000000   0.000000
     6  C   -0.016935  -0.029432   0.301673   0.000470   0.002623   0.547243
     7  C    5.114662   0.552939  -0.026771   0.365139  -0.030506   0.000663
     8  C    0.552939   4.760373   0.311307  -0.038801   0.366136   0.002201
     9  N   -0.026771   0.311307   7.092356   0.003749  -0.045239  -0.082472
    10  H    0.365139  -0.038801   0.003749   0.548565  -0.004024   0.000004
    11  H   -0.030506   0.366136  -0.045239  -0.004024   0.529777  -0.000103
    12  O    0.000663   0.002201  -0.082472   0.000004  -0.000103   8.140481
    13  N   -0.064728  -0.011396  -0.097839   0.003888  -0.000276  -0.082818
    14  C    0.430467  -0.012057  -0.018666  -0.029082   0.002672   0.000266
    15  N   -0.085151   0.006969   0.000144  -0.006963  -0.000133  -0.000059
    16  H    0.000708  -0.000022  -0.000000  -0.000013   0.000000  -0.000000
    17  H   -0.012819   0.000973   0.000018   0.004688  -0.000013   0.000001
    18  H    0.002405  -0.018746   0.253592  -0.000104  -0.003240  -0.001654
    19  S   -0.000000   0.000000  -0.000000   0.000000  -0.000000  -0.000000
    20  C   -0.000000   0.000000  -0.000000   0.000000   0.000000   0.000000
    21  H    0.000000  -0.000000  -0.000000  -0.000000   0.000000  -0.000000
    22  H   -0.000000   0.000000   0.000000  -0.000000  -0.000000  -0.000000
    23  H    0.000000  -0.000000  -0.000000   0.000000   0.000000   0.000000
    24  C    0.000000  -0.000000   0.000000  -0.000000   0.000000   0.000000
    25  H   -0.000000   0.000000  -0.000000   0.000000  -0.000000   0.000000
    26  H    0.000000  -0.000000  -0.000000  -0.000000   0.000000   0.000000
    27  H   -0.000000   0.000000  -0.000000  -0.000000  -0.000000  -0.000000
    28  C    0.006187  -0.000149   0.003264  -0.000119   0.000014  -0.010234
    29  H   -0.000043  -0.000003  -0.000046  -0.000002   0.000000   0.000415
    30  H   -0.000254   0.000011  -0.000086   0.000001  -0.000000   0.000438
    31  H   -0.000193  -0.000049   0.000843   0.000002   0.000001   0.017796
    32  N    0.000000  -0.000001   0.000006   0.000000  -0.000000  -0.006809
    33  H    0.000000  -0.000000   0.000027  -0.000000  -0.000000   0.000098
    34  C    0.000000  -0.000008  -0.000513   0.000000   0.000000   0.000218
    35  H    0.000000  -0.000001   0.000088  -0.000000   0.000000   0.002470
    36  C   -0.000000   0.000000  -0.000004  -0.000000   0.000000   0.000322
    37  C   -0.000011   0.000253  -0.001443   0.000000  -0.000015   0.016407
    38  H    0.000000  -0.000000   0.000001  -0.000000  -0.000000  -0.000001
    39  H   -0.000000   0.000000   0.000000   0.000000  -0.000000   0.000002
    40  H    0.000000  -0.000000  -0.000000   0.000000  -0.000000  -0.000000
    41  O   -0.000010   0.000220  -0.020503   0.000000   0.000056  -0.003922
    42  O   -0.000003  -0.000069   0.001528  -0.000000   0.000003  -0.005065
    43  H   -0.000000   0.000000  -0.000130  -0.000000   0.000000   0.017623
    44  H    0.000001   0.000002  -0.000051   0.000000   0.000000   0.002053
              13         14         15         16         17         18
     1  C    0.000051  -0.000166  -0.000169  -0.007570   0.000030   0.000000
     2  O    0.000253  -0.000069  -0.000357   0.005805   0.000005  -0.000000
     3  O    0.000000  -0.000000  -0.000020   0.002657   0.000001  -0.000000
     4  O    0.000138  -0.000624  -0.037248   0.169469   0.001791   0.000000
     5  H   -0.000000   0.000000   0.000003  -0.000114  -0.000000   0.000000
     6  C    0.300384  -0.025557   0.001423  -0.000019  -0.000058  -0.017931
     7  C   -0.064728   0.430467  -0.085151   0.000708  -0.012819   0.002405
     8  C   -0.011396  -0.012057   0.006969  -0.000022   0.000973  -0.018746
     9  N   -0.097839  -0.018666   0.000144  -0.000000   0.000018   0.253592
    10  H    0.003888  -0.029082  -0.006963  -0.000013   0.004688  -0.000104
    11  H   -0.000276   0.002672  -0.000133   0.000000  -0.000013  -0.003240
    12  O   -0.082818   0.000266  -0.000059  -0.000000   0.000001  -0.001654
    13  N    7.147542   0.280862  -0.087623  -0.002730   0.008099   0.002490
    14  C    0.280862   4.347556   0.530982   0.001737  -0.047724   0.000472
    15  N   -0.087623   0.530982   7.025111   0.086703   0.293463   0.000008
    16  H   -0.002730   0.001737   0.086703   0.271718  -0.006136  -0.000000
    17  H    0.008099  -0.047724   0.293463  -0.006136   0.453542  -0.000000
    18  H    0.002490   0.000472   0.000008  -0.000000  -0.000000   0.320135
    19  S    0.000000  -0.000000  -0.000000   0.000006   0.000000   0.000000
    20  C   -0.000000   0.000000   0.000000  -0.000000  -0.000000   0.000000
    21  H    0.000000  -0.000000   0.000000  -0.000000  -0.000000   0.000000
    22  H    0.000000  -0.000000  -0.000000   0.000000   0.000000  -0.000000
    23  H   -0.000000   0.000000   0.000000  -0.000000  -0.000000   0.000000
    24  C   -0.000000   0.000000  -0.000000   0.000000  -0.000000  -0.000000
    25  H   -0.000000  -0.000000   0.000000  -0.000000   0.000000   0.000000
    26  H    0.000000  -0.000000   0.000000  -0.000000  -0.000000   0.000000
    27  H    0.000000  -0.000000   0.000000  -0.000001   0.000000   0.000000
    28  C    0.241937  -0.031191  -0.007814   0.001697  -0.000058  -0.000069
    29  H   -0.033009  -0.003851   0.003988   0.001706   0.000101   0.000002
    30  H   -0.037915  -0.005317   0.002740  -0.001482   0.000110   0.000002
    31  H   -0.032846   0.004121   0.000718   0.000062  -0.000008  -0.000004
    32  N   -0.000001   0.000000  -0.000000  -0.000000   0.000000  -0.000217
    33  H    0.000000   0.000000   0.000000   0.000000  -0.000000  -0.000157
    34  C   -0.000004  -0.000000   0.000000   0.000000  -0.000000   0.002223
    35  H   -0.000005   0.000000   0.000000  -0.000000  -0.000000  -0.000248
    36  C    0.000000  -0.000000   0.000000   0.000000  -0.000000   0.000015
    37  C    0.000085  -0.000000   0.000000  -0.000000  -0.000000  -0.000076
    38  H    0.000000   0.000000  -0.000000  -0.000000   0.000000  -0.000011
    39  H    0.000000  -0.000000  -0.000000   0.000000  -0.000000  -0.000000
    40  H   -0.000000  -0.000000  -0.000000   0.000000   0.000000   0.000000
    41  O   -0.000008   0.000000  -0.000000  -0.000000   0.000000   0.061254
    42  O   -0.000044   0.000003   0.000000   0.000000   0.000000  -0.003892
    43  H    0.000027   0.000000   0.000000   0.000000  -0.000000   0.000059
    44  H   -0.000018  -0.000001   0.000000  -0.000000  -0.000000   0.000002
              19         20         21         22         23         24
     1  C   -0.001554   0.000036   0.000004  -0.000001   0.000001   0.000327
     2  O    0.009620   0.000071   0.000001  -0.000000   0.000000  -0.009669
     3  O   -0.020271   0.000045   0.000027  -0.000002   0.000003  -0.000048
     4  O   -0.000075   0.000000   0.000000  -0.000000   0.000000  -0.000007
     5  H    0.065288  -0.001403  -0.000315   0.000078  -0.000020  -0.002800
     6  C    0.000000   0.000000  -0.000000   0.000000  -0.000000  -0.000000
     7  C   -0.000000  -0.000000   0.000000  -0.000000   0.000000   0.000000
     8  C    0.000000   0.000000  -0.000000   0.000000  -0.000000  -0.000000
     9  N   -0.000000  -0.000000  -0.000000   0.000000  -0.000000   0.000000
    10  H    0.000000   0.000000  -0.000000  -0.000000   0.000000  -0.000000
    11  H   -0.000000   0.000000   0.000000  -0.000000   0.000000   0.000000
    12  O   -0.000000   0.000000  -0.000000  -0.000000   0.000000   0.000000
    13  N    0.000000  -0.000000   0.000000   0.000000  -0.000000  -0.000000
    14  C   -0.000000   0.000000  -0.000000  -0.000000   0.000000   0.000000
    15  N   -0.000000   0.000000   0.000000  -0.000000   0.000000  -0.000000
    16  H    0.000006  -0.000000  -0.000000   0.000000  -0.000000   0.000000
    17  H    0.000000  -0.000000  -0.000000   0.000000  -0.000000  -0.000000
    18  H    0.000000   0.000000   0.000000  -0.000000   0.000000  -0.000000
    19  S   15.618841   0.239805  -0.047812  -0.039835  -0.033126   0.252297
    20  C    0.239805   5.270262   0.369452   0.364814   0.372649  -0.028142
    21  H   -0.047812   0.369452   0.561919  -0.037619  -0.024936  -0.003698
    22  H   -0.039835   0.364814  -0.037619   0.559657  -0.025448  -0.003679
    23  H   -0.033126   0.372649  -0.024936  -0.025448   0.523522   0.002960
    24  C    0.252297  -0.028142  -0.003698  -0.003679   0.002960   5.292723
    25  H   -0.044003  -0.003169  -0.001115   0.005505  -0.000035   0.362193
    26  H   -0.048257  -0.004358   0.007413  -0.001311   0.000018   0.367239
    27  H   -0.032983   0.002955   0.000037  -0.000063  -0.000070   0.362601
    28  C    0.000032   0.000000   0.000000   0.000000   0.000000  -0.000001
    29  H   -0.000010  -0.000000  -0.000000   0.000000  -0.000000  -0.000004
    30  H   -0.000007  -0.000000   0.000000   0.000000  -0.000000  -0.000000
    31  H   -0.000002  -0.000000   0.000000   0.000000  -0.000000   0.000000
    32  N   -0.000000   0.000000  -0.000000   0.000000   0.000000   0.000000
    33  H    0.000000   0.000000   0.000000  -0.000000   0.000000  -0.000000
    34  C   -0.000000   0.000000  -0.000000  -0.000000   0.000000  -0.000000
    35  H    0.000000  -0.000000   0.000000  -0.000000   0.000000   0.000000
    36  C   -0.000000  -0.000000   0.000000  -0.000000   0.000000   0.000000
    37  C    0.000000   0.000000   0.000000   0.000000  -0.000000   0.000000
    38  H    0.000000   0.000000   0.000000   0.000000   0.000000  -0.000000
    39  H   -0.000000   0.000000   0.000000   0.000000  -0.000000  -0.000000
    40  H    0.000000   0.000000   0.000000  -0.000000   0.000000  -0.000000
    41  O   -0.000000   0.000000   0.000000   0.000000   0.000000   0.000000
    42  O    0.000000   0.000000   0.000000   0.000000   0.000000  -0.000000
    43  H    0.000000   0.000000   0.000000  -0.000000  -0.000000  -0.000000
    44  H    0.000000  -0.000000   0.000000  -0.000000   0.000000   0.000000
              25         26         27         28         29         30
     1  C   -0.000011   0.000085  -0.000054   0.000445   0.000746   0.000436
     2  O    0.000210   0.000053   0.018363  -0.006527   0.018033  -0.001530
     3  O   -0.000012   0.000082   0.000042  -0.000057   0.000147  -0.000232
     4  O    0.000000   0.000000   0.000041  -0.001159  -0.001357   0.007795
     5  H    0.000191  -0.000546  -0.000313  -0.000001  -0.000004   0.000010
     6  C   -0.000000   0.000000   0.000000  -0.032577   0.001689   0.001011
     7  C   -0.000000   0.000000  -0.000000   0.006187  -0.000043  -0.000254
     8  C    0.000000  -0.000000   0.000000  -0.000149  -0.000003   0.000011
     9  N   -0.000000  -0.000000  -0.000000   0.003264  -0.000046  -0.000086
    10  H    0.000000  -0.000000  -0.000000  -0.000119  -0.000002   0.000001
    11  H   -0.000000   0.000000  -0.000000   0.000014   0.000000  -0.000000
    12  O    0.000000   0.000000  -0.000000  -0.010234   0.000415   0.000438
    13  N   -0.000000   0.000000   0.000000   0.241937  -0.033009  -0.037915
    14  C   -0.000000  -0.000000  -0.000000  -0.031191  -0.003851  -0.005317
    15  N    0.000000   0.000000   0.000000  -0.007814   0.003988   0.002740
    16  H   -0.000000  -0.000000  -0.000001   0.001697   0.001706  -0.001482
    17  H    0.000000  -0.000000   0.000000  -0.000058   0.000101   0.000110
    18  H    0.000000   0.000000   0.000000  -0.000069   0.000002   0.000002
    19  S   -0.044003  -0.048257  -0.032983   0.000032  -0.000010  -0.000007
    20  C   -0.003169  -0.004358   0.002955   0.000000  -0.000000  -0.000000
    21  H   -0.001115   0.007413   0.000037   0.000000  -0.000000   0.000000
    22  H    0.005505  -0.001311  -0.000063   0.000000   0.000000   0.000000
    23  H   -0.000035   0.000018  -0.000070   0.000000  -0.000000  -0.000000
    24  C    0.362193   0.367239   0.362601  -0.000001  -0.000004  -0.000000
    25  H    0.567128  -0.036979  -0.020796   0.000000  -0.000000   0.000000
    26  H   -0.036979   0.567392  -0.020214   0.000000  -0.000000   0.000000
    27  H   -0.020796  -0.020214   0.458478  -0.000004   0.000044   0.000000
    28  C    0.000000   0.000000  -0.000004   5.078703   0.369116   0.376767
    29  H   -0.000000  -0.000000   0.000044   0.369116   0.474757  -0.033929
    30  H    0.000000   0.000000   0.000000   0.376767  -0.033929   0.537923
    31  H   -0.000000   0.000000   0.000000   0.362754  -0.019210  -0.024098
    32  N   -0.000000  -0.000000  -0.000000  -0.000000  -0.000000   0.000000
    33  H    0.000000   0.000000   0.000000  -0.000000   0.000000   0.000000
    34  C    0.000000  -0.000000  -0.000000  -0.000001   0.000000  -0.000000
    35  H   -0.000000   0.000000  -0.000000  -0.000003  -0.000000   0.000000
    36  C   -0.000000  -0.000000  -0.000000   0.000000  -0.000000   0.000000
    37  C   -0.000000   0.000000  -0.000000   0.000008  -0.000000   0.000000
    38  H    0.000000   0.000000   0.000000  -0.000000   0.000000   0.000000
    39  H    0.000000  -0.000000   0.000000   0.000000  -0.000000  -0.000000
    40  H    0.000000   0.000000   0.000000   0.000000  -0.000000   0.000000
    41  O    0.000000   0.000000  -0.000000   0.000000   0.000000  -0.000000
    42  O    0.000000  -0.000000   0.000000  -0.000001   0.000000   0.000000
    43  H    0.000000   0.000000   0.000000   0.000002   0.000001  -0.000001
    44  H   -0.000000   0.000000  -0.000000   0.000003  -0.000000   0.000000
              31         32         33         34         35         36
     1  C    0.000083   0.000000  -0.000000  -0.000000   0.000000  -0.000000
     2  O    0.000191   0.000000  -0.000000  -0.000000   0.000000  -0.000000
     3  O   -0.000000   0.000000  -0.000000  -0.000000   0.000000  -0.000000
     4  O    0.000092  -0.000000  -0.000000   0.000000  -0.000000  -0.000000
     5  H   -0.000000  -0.000000   0.000000   0.000000   0.000000   0.000000
     6  C   -0.002802   0.000592   0.000039  -0.000697  -0.000023   0.000023
     7  C   -0.000193   0.000000   0.000000   0.000000   0.000000  -0.000000
     8  C   -0.000049  -0.000001  -0.000000  -0.000008  -0.000001   0.000000
     9  N    0.000843   0.000006   0.000027  -0.000513   0.000088  -0.000004
    10  H    0.000002   0.000000  -0.000000   0.000000  -0.000000  -0.000000
    11  H    0.000001  -0.000000  -0.000000   0.000000   0.000000   0.000000
    12  O    0.017796  -0.006809   0.000098   0.000218   0.002470   0.000322
    13  N   -0.032846  -0.000001   0.000000  -0.000004  -0.000005   0.000000
    14  C    0.004121   0.000000   0.000000  -0.000000   0.000000  -0.000000
    15  N    0.000718  -0.000000   0.000000   0.000000   0.000000   0.000000
    16  H    0.000062  -0.000000   0.000000   0.000000  -0.000000   0.000000
    17  H   -0.000008   0.000000  -0.000000  -0.000000  -0.000000  -0.000000
    18  H   -0.000004  -0.000217  -0.000157   0.002223  -0.000248   0.000015
    19  S   -0.000002  -0.000000   0.000000  -0.000000   0.000000  -0.000000
    20  C   -0.000000   0.000000   0.000000   0.000000  -0.000000  -0.000000
    21  H    0.000000  -0.000000   0.000000  -0.000000   0.000000   0.000000
    22  H    0.000000   0.000000  -0.000000  -0.000000  -0.000000  -0.000000
    23  H   -0.000000   0.000000   0.000000   0.000000   0.000000   0.000000
    24  C    0.000000   0.000000  -0.000000  -0.000000   0.000000   0.000000
    25  H   -0.000000  -0.000000   0.000000   0.000000  -0.000000  -0.000000
    26  H    0.000000  -0.000000   0.000000  -0.000000   0.000000  -0.000000
    27  H    0.000000  -0.000000   0.000000  -0.000000  -0.000000  -0.000000
    28  C    0.362754  -0.000000  -0.000000  -0.000001  -0.000003   0.000000
    29  H   -0.019210  -0.000000   0.000000   0.000000  -0.000000  -0.000000
    30  H   -0.024098   0.000000   0.000000  -0.000000   0.000000   0.000000
    31  H    0.497758  -0.000004   0.000000  -0.000006   0.000019  -0.000000
    32  N   -0.000004   6.884703   0.310482   0.350308  -0.037933  -0.058328
    33  H    0.000000   0.310482   0.450003  -0.049736   0.007603  -0.004452
    34  C   -0.000006   0.350308  -0.049736   5.057627   0.363559   0.340333
    35  H    0.000019  -0.037933   0.007603   0.363559   0.604459  -0.038347
    36  C   -0.000000  -0.058328  -0.004452   0.340333  -0.038347   5.136987
    37  C   -0.000001  -0.052050  -0.005333   0.296632  -0.049903  -0.042757
    38  H    0.000000  -0.003793   0.005430  -0.032561   0.005539   0.372896
    39  H   -0.000000   0.004393  -0.000134  -0.032732  -0.002390   0.362499
    40  H   -0.000000   0.002616  -0.000741  -0.025510  -0.005501   0.369734
    41  O    0.000001  -0.009174   0.013250  -0.080576   0.002599  -0.002607
    42  O    0.000001   0.003374   0.000326  -0.076448   0.001925   0.000754
    43  H    0.000054   0.311979  -0.028858  -0.047115  -0.005810   0.006870
    44  H   -0.000002   0.000194  -0.000007   0.006399   0.005581  -0.000085
              37         38         39         40         41         42
     1  C   -0.000000  -0.000000  -0.000000  -0.000000   0.000000  -0.000000
     2  O    0.000000  -0.000000   0.000000   0.000000  -0.000000  -0.000000
     3  O   -0.000000   0.000000  -0.000000   0.000000   0.000000   0.000000
     4  O   -0.000000   0.000000   0.000000  -0.000000   0.000000   0.000000
     5  H   -0.000000   0.000000  -0.000000  -0.000000   0.000000  -0.000000
     6  C    0.002213   0.000000  -0.000001  -0.000000  -0.002741   0.002691
     7  C   -0.000011   0.000000  -0.000000   0.000000  -0.000010  -0.000003
     8  C    0.000253  -0.000000   0.000000  -0.000000   0.000220  -0.000069
     9  N   -0.001443   0.000001   0.000000  -0.000000  -0.020503   0.001528
    10  H    0.000000  -0.000000   0.000000   0.000000   0.000000  -0.000000
    11  H   -0.000015  -0.000000  -0.000000  -0.000000   0.000056   0.000003
    12  O    0.016407  -0.000001   0.000002  -0.000000  -0.003922  -0.005065
    13  N    0.000085   0.000000   0.000000  -0.000000  -0.000008  -0.000044
    14  C   -0.000000   0.000000  -0.000000  -0.000000   0.000000   0.000003
    15  N    0.000000  -0.000000  -0.000000  -0.000000  -0.000000   0.000000
    16  H   -0.000000  -0.000000   0.000000   0.000000  -0.000000   0.000000
    17  H   -0.000000   0.000000  -0.000000   0.000000   0.000000   0.000000
    18  H   -0.000076  -0.000011  -0.000000   0.000000   0.061254  -0.003892
    19  S    0.000000   0.000000  -0.000000   0.000000  -0.000000   0.000000
    20  C    0.000000   0.000000   0.000000   0.000000   0.000000   0.000000
    21  H    0.000000   0.000000   0.000000   0.000000   0.000000   0.000000
    22  H    0.000000   0.000000   0.000000  -0.000000   0.000000   0.000000
    23  H   -0.000000   0.000000  -0.000000   0.000000   0.000000   0.000000
    24  C    0.000000  -0.000000  -0.000000  -0.000000   0.000000  -0.000000
    25  H   -0.000000   0.000000   0.000000   0.000000   0.000000   0.000000
    26  H    0.000000   0.000000  -0.000000   0.000000   0.000000  -0.000000
    27  H   -0.000000   0.000000   0.000000   0.000000  -0.000000   0.000000
    28  C    0.000008  -0.000000   0.000000   0.000000   0.000000  -0.000001
    29  H   -0.000000   0.000000  -0.000000  -0.000000   0.000000   0.000000
    30  H    0.000000   0.000000  -0.000000   0.000000  -0.000000   0.000000
    31  H   -0.000001   0.000000  -0.000000  -0.000000   0.000001   0.000001
    32  N   -0.052050  -0.003793   0.004393   0.002616  -0.009174   0.003374
    33  H   -0.005333   0.005430  -0.000134  -0.000741   0.013250   0.000326
    34  C    0.296632  -0.032561  -0.032732  -0.025510  -0.080576  -0.076448
    35  H   -0.049903   0.005539  -0.002390  -0.005501   0.002599   0.001925
    36  C   -0.042757   0.372896   0.362499   0.369734  -0.002607   0.000754
    37  C    4.478764  -0.006785   0.000273   0.004924   0.519750   0.228170
    38  H   -0.006785   0.551291  -0.029020  -0.027006   0.002900   0.000094
    39  H    0.000273  -0.029020   0.576914  -0.025425  -0.000085   0.002801
    40  H    0.004924  -0.027006  -0.025425   0.530459  -0.000039  -0.000118
    41  O    0.519750   0.002900  -0.000085  -0.000039   8.099247  -0.078399
    42  O    0.228170   0.000094   0.002801  -0.000118  -0.078399   8.259863
    43  H    0.002121  -0.000129  -0.000217  -0.000110   0.000866   0.000210
    44  H   -0.023052   0.000033   0.000380  -0.000070   0.004599   0.230631
              43         44
     1  C   -0.000000   0.000000
     2  O   -0.000000   0.000000
     3  O   -0.000000  -0.000000
     4  O   -0.000000  -0.000000
     5  H    0.000000   0.000000
     6  C    0.000453  -0.000138
     7  C   -0.000000   0.000001
     8  C    0.000000   0.000002
     9  N   -0.000130  -0.000051
    10  H   -0.000000   0.000000
    11  H    0.000000   0.000000
    12  O    0.017623   0.002053
    13  N    0.000027  -0.000018
    14  C    0.000000  -0.000001
    15  N    0.000000   0.000000
    16  H    0.000000  -0.000000
    17  H   -0.000000  -0.000000
    18  H    0.000059   0.000002
    19  S    0.000000   0.000000
    20  C    0.000000  -0.000000
    21  H    0.000000   0.000000
    22  H   -0.000000  -0.000000
    23  H   -0.000000   0.000000
    24  C   -0.000000   0.000000
    25  H    0.000000  -0.000000
    26  H    0.000000   0.000000
    27  H    0.000000  -0.000000
    28  C    0.000002   0.000003
    29  H    0.000001  -0.000000
    30  H   -0.000001   0.000000
    31  H    0.000054  -0.000002
    32  N    0.311979   0.000194
    33  H   -0.028858  -0.000007
    34  C   -0.047115   0.006399
    35  H   -0.005810   0.005581
    36  C    0.006870  -0.000085
    37  C    0.002121  -0.023052
    38  H   -0.000129   0.000033
    39  H   -0.000217   0.000380
    40  H   -0.000110  -0.000070
    41  O    0.000866   0.004599
    42  O    0.000210   0.230631
    43  H    0.417772  -0.000041
    44  H   -0.000041   0.353049
 Mulliken charges:
               1
     1  C    0.695492
     2  O   -0.511062
     3  O   -0.579454
     4  O   -0.598324
     5  H    0.437747
     6  C    0.804671
     7  C   -0.235713
     8  C    0.109351
     9  N   -0.674834
    10  H    0.152600
    11  H    0.182267
    12  O   -0.555563
    13  N   -0.534496
    14  C    0.575166
    15  N   -0.726712
    16  H    0.475819
    17  H    0.303995
    18  H    0.403689
    19  S    0.082042
    20  C   -0.583016
    21  H    0.176642
    22  H    0.177905
    23  H    0.184482
    24  C   -0.592293
    25  H    0.170892
    26  H    0.169382
    27  H    0.231937
    28  C   -0.350962
    29  H    0.220724
    30  H    0.177606
    31  H    0.194731
    32  N   -0.700335
    33  H    0.302164
    34  C   -0.071391
    35  H    0.146324
    36  C   -0.443854
    37  C    0.631827
    38  H    0.161123
    39  H    0.142741
    40  H    0.176789
    41  O   -0.506676
    42  O   -0.568335
    43  H    0.324375
    44  H    0.420538
 Sum of Mulliken charges =  -0.00000
 Mulliken charges with hydrogens summed into heavy atoms:
               1
     1  C    0.695492
     2  O   -0.511062
     3  O   -0.141707
     4  O   -0.122505
     6  C    0.804671
     7  C   -0.083113
     8  C    0.291618
     9  N   -0.271145
    12  O   -0.555563
    13  N   -0.534496
    14  C    0.575166
    15  N   -0.422717
    19  S    0.082042
    20  C   -0.043987
    24  C   -0.020082
    28  C    0.242098
    32  N   -0.073795
    34  C    0.074933
    36  C    0.036800
    37  C    0.631827
    41  O   -0.506676
    42  O   -0.147797
 Electronic spatial extent (au):  <R**2>=          14279.4298
 Charge=             -0.0000 electrons
 Dipole moment (field-independent basis, Debye):
    X=              2.0298    Y=              0.4620    Z=              0.3992  Tot=              2.1196
 Quadrupole moment (field-independent basis, Debye-Ang):
   XX=           -107.3553   YY=           -136.1328   ZZ=           -141.2534
   XY=             -5.4274   XZ=             -4.9878   YZ=            -16.8212
 Traceless Quadrupole moment (field-independent basis, Debye-Ang):
   XX=             20.8919   YY=             -7.8856   ZZ=            -13.0063
   XY=             -5.4274   XZ=             -4.9878   YZ=            -16.8212
 Octapole moment (field-independent basis, Debye-Ang**2):
  XXX=           -196.8443  YYY=            -68.3245  ZZZ=             -1.2994  XYY=             44.4838
  XXY=           -120.0512  XXZ=             10.5609  XZZ=             -0.6494  YZZ=             -7.8100
  YYZ=            -26.1649  XYZ=              4.2584
 Hexadecapole moment (field-independent basis, Debye-Ang**3):
 XXXX=          -9450.5786 YYYY=          -6307.6555 ZZZZ=           -817.0328 XXXY=          -2245.1177
 XXXZ=           -373.1538 YYYX=          -2238.8300 YYYZ=           -774.3852 ZZZX=           -465.8655
 ZZZY=           -555.3912 XXYY=          -2793.0248 XXZZ=          -1951.7950 YYZZ=          -1312.2310
 XXYZ=           -228.2593 YYXZ=           -252.2041 ZZXY=           -784.5762
 N-N= 1.965727537938D+03 E-N=-7.454536797637D+03  KE= 1.490094429923D+03
 Calling FoFJK, ICntrl=      2127 FMM=F ISym2X=0 I1Cent= 0 IOpClX= 0 NMat=1 NMatS=1 NMatT=0.
 -------------------------------------------------------------------
 Center     Atomic                   Forces (Hartrees/Bohr)
[...]
 -0.00023896,0.06535018,-0.06098929,-0.08263138,-0.00147633,-0.00015999
 ,-0.00061430,-0.01520464,0.01531615,0.00895734,0.01887937,-0.01925582,
 -0.00895873,-0.07114124,0.06787413,0.08443280,-0.00011267,0.00012089,0
 .00009456,0.00002393,-0.00010142,-0.00004918,0.00002931,-0.00003803,-0
 .00001039,0.00014936,-0.00005253,0.00000987,-0.00001120,0.00002964,0.0
 0000133,-0.00406936,0.00479100,-0.00048875,0.00062252,-0.00008313,0.00
 009340,-0.00047063,-0.00063618,-0.00014420,0.00372226,-0.00041129,0.00
 071412,0.00001788,-0.00000450,0.00000745,0.00011307,-0.00036235,0.0000
 0173,0.00008116,-0.00482365,-0.00016887,0.00047286,-0.00151065,-0.0000
 0775,-0.00086822,0.00061464,-0.00011201,0.00034235,-0.00013257,0.00006
 515,-0.00014361,0.00001652,-0.00005717,-0.00000491,-0.00006439,-0.0000
 1062,-0.00406475,-0.00497723,-0.00168469,0.00000693,-0.00000781,-0.000
 00541,0.00001191,-0.00000574,0.00000724,-0.00000966,-0.00000573,0.0000
 0265,0.00000013,0.00000241,-0.00000140,0.00000080,0.00000425,-0.000000
 34,-0.00000823,-0.00000109,-0.00000449,0.00000921,0.00000275,-0.000003
 42,-0.00000634,-0.00000800,0.00000347,-0.00000156,0.00001543,-0.000001
 42,-0.00004155,0.00010147,0.00002261,0.00003262,-0.00000995,0.00001873
 ,0.00003009,0.00001214,-0.00001565,0.00009468,0.00001001,-0.00001274,0
 .00137606,0.00132226,-0.00280237,-0.00108489,-0.00024175,0.00035645,-0
 .01049209,0.02952326,-0.01697388,-0.00251678,0.00312239,0.00133025,-0.
 00711004,0.00024247,0.00065949,-0.32176418,0.23798606,-0.19847412,0.00
 079508,0.00086783,0.00110991,0.00014970,0.00009983,-0.00028511,0.00198
 201,0.00208490,0.00060100,0.32291379,0.00135458,-0.00007702,0.00007789
 ,-0.00055026,-0.00002079,0.00002356,-0.00071950,-0.00003850,-0.0002610
 3,-0.00130683,-0.00008726,-0.00016406,0.00024964,-0.00012263,-0.000032
 93,0.00910464,-0.00393548,0.00169662,-0.00115862,-0.00252655,-0.000349
 14,-0.00465340,0.00462611,-0.00040895,-0.00717312,-0.01667099,-0.00209
 115,-0.00031348,-0.00040547,-0.00007937,0.00021107,0.00027301,0.000063
 12,-0.00495048,0.00308644,-0.00093373,-0.00259890,-0.00074040,-0.00048
 535,0.00242630,0.00150343,0.00053013,-0.00209858,-0.00159982,-0.000524
 30,0.00137238,0.00038882,0.00051646,0.00012493,0.00020585,0.00004191,0
 .00404609,0.01026845,-0.00043645,-0.00002251,0.00004383,0.00001221,0.0
 0003340,0.00003776,0.00003121,-0.00000950,-0.00000458,-0.00000052,-0.0
 0004402,-0.00000836,0.00000937,-0.00000662,-0.00000970,-0.00000881,0.0
 0000926,0.00001092,-0.00000202,-0.00002462,0.00000810,0.00001344,0.000
 00649,-0.00000375,-0.00000798,0.00004249,-0.00003645,-0.00005534,0.000
 81371,-0.00051950,0.00014639,-0.00008764,0.00001061,-0.00009731,-0.000
 22801,-0.00008255,-0.00005888,0.00013612,0.00008971,0.00003453,0.00020
 902,0.00045549,-0.00264169,-0.00076702,-0.00043189,-0.00010230,0.02972
 990,-0.00808873,0.02594401,0.00501864,-0.00531857,-0.00350143,0.001624
 42,0.00302436,-0.00014338,0.23745196,-0.30108784,0.18477654,-0.0006316
 7,0.00026329,-0.00022361,0.00000792,0.00009073,0.00019235,-0.00042658,
 -0.00061831,-0.00010097,-0.26961823,0.30534148,-0.00021619,-0.00002814
 ,-0.00013370,0.00009011,0.00002887,0.00008050,0.00013787,0.00001132,0.
 00009381,0.00021028,0.00001588,0.00009519,-0.00003260,0.00002316,-0.00
 001196,-0.00195635,0.00063180,-0.00098579,0.00031963,0.00043823,0.0000
 9941,0.00065440,-0.00103084,0.00009274,0.00149311,0.00263910,0.0030431
 0,0.00006599,0.00008108,-0.00005468,-0.00000769,-0.00013060,-0.0001384
 0,0.00079574,-0.00071501,0.00195934,0.00055461,0.00010864,0.00001473,-
 0.00052899,-0.00019508,-0.00025590,0.00042924,0.00028478,0.00020283,-0
 .00027230,-0.00006384,-0.00014252,-0.00002313,-0.00004228,-0.00003125,
 -0.00299368,-0.00626923,-0.00512646,0.00000938,-0.00000198,-0.00000319
 ,-0.00000405,-0.00000758,0.00000371,-0.00000005,-0.00000177,-0.0000014
 1,0.00000430,0.00000327,-0.00000354,0.00000719,0.00000329,0.00000375,-
 0.00001036,-0.00000414,-0.00001389,-0.00000355,0.00000010,0.00000592,-
 0.00000272,-0.00000090,0.00000984,-0.00000498,0.00000164,0.00000037,-0
 .00016778,0.00008661,-0.00006786,0.00002820,-0.00003268,0.00002464,0.0
 0006062,0.00007183,0.00002978,-0.00001581,-0.00001712,-0.00007741,0.00
 330922,-0.00496920,0.00252416,-0.00025725,0.00055326,0.00340638,-0.000
 10039,0.00556134,0.00383993,0.00219694,-0.00146817,0.00164600,-0.00149
 523,-0.00119510,-0.00032005,-0.20825405,0.19962034,-0.28395439,0.00062
 128,0.00100292,0.00059376,-0.00013349,-0.00079291,0.00031876,0.0004898
 2,0.00030754,0.00045353,0.24828244,-0.23842588,0.35724251,0.00011199,0
 .00007713,0.00009724,-0.00005934,-0.00007317,-0.00004634,-0.00008444,-
 0.00003051,-0.00005344,-0.00007621,-0.00004518,-0.00002582,0.00002683,
 0.00000086,0.00000028,-0.00179445,0.00249278,-0.00016564,0.00011339,-0
 .00012906,-0.00001608,-0.00012352,0.00014860,0.00004644,0.00069393,-0.
 00045133,0.00027283,0.00000657,-0.00001260,-0.00000400,0.00004173,-0.0
 0006779,0.00002640,0.00053014,-0.00248962,0.00083326,0.00007086,-0.000
 97638,-0.00011653,-0.00027113,0.00053226,-0.00003305,-0.00004351,-0.00
 025852,-0.00003901,0.00009168,0.00006085,0.00003799,0.00001007,-0.0000
 1126,0.00001349,-0.00002937,-0.00035979,-0.00062212,-0.00000014,0.0000
 0063,-0.00000190,0.00001229,0.00000159,0.00000735,-0.00000739,-0.00000
 351,0.00000194,-0.00000574,-0.00000027,0.00000121,-0.00000194,0.000000
 68,-0.00000222,-0.00000217,0.00000124,0.00000051,0.00000431,0.00000247
 ,-0.00000213,-0.00000249,-0.00000508,-0.00000098,0.00000432,0.00000567
 ,-0.00000672,0.00007317,0.00002077,0.00004879,0.00001231,-0.00000165,0
 .00000372,-0.00000285,0.00000536,-0.00001834,0.00006086,0.00001781,-0.
 00000380,-0.00272071,0.00174344,0.00456996,-0.00056630,0.00023901,0.00
 042650,0.01033626,0.00755897,0.01848952,0.00216832,-0.00195171,0.00093
 397,-0.00369161,0.00007033,0.00282431,-0.10052964,0.04332066,0.0190641
 9,0.00025658,0.00042852,0.00022285,0.00008636,0.00075858,-0.00057780,0
 .00070507,0.00144887,0.00009314,0.01333942,0.00163000,-0.04538816,0.34
 426591,0.00042275,-0.00001748,-0.00001581,-0.00017645,-0.00001342,0.00
 003921,-0.00022085,-0.00001755,-0.00006090,-0.00038264,-0.00003678,-0.
 00000509,0.00008902,-0.00003514,-0.00002015,0.00037622,0.00147651,-0.0
 0022569,-0.00028677,-0.00037217,-0.00004409,-0.00042549,0.00103967,-0.
 00001559,-0.00029817,-0.00102978,0.00035446,-0.00002528,-0.00003743,-0
 .00002055,0.00001069,0.00003396,-0.00003471,-0.00087925,-0.00105425,0.
 00165438,-0.00027593,-0.00066752,-0.00016540,0.00031953,0.00058268,-0.
 00003713,-0.00045136,-0.00046039,-0.00006376,0.00035940,0.00012439,0.0
 0011035,0.00003194,0.00004001,0.00000217,0.00084294,0.00170090,-0.0004
 8986,-0.00000366,0.00001773,0.00000214,0.00001459,0.00001060,0.0000165
 0,-0.00000593,-0.00000347,-0.00000049,-0.00001712,-0.00000176,0.000002
 50,0.00000100,-0.00000212,-0.00000218,-0.00000288,0.00000167,-0.000008
 95,-0.00001097,0.00000366,0.00000874,0.00000093,-0.00000277,0.00000246
 ,0.00001519,-0.00001258,-0.00002304,0.00020011,-0.00009305,0.00004367,
 0.00000522,-0.00002195,-0.00000938,-0.00002360,0.00002994,-0.00000989,
 0.00007763,0.00001845,-0.00004748,0.00499071,-0.00334918,-0.00547623,0
 .00045409,0.00011035,0.00018239,0.00598946,0.01632805,-0.01831008,-0.0
 0001044,-0.00059157,-0.00020290,-0.00158523,-0.00009972,0.00190844,0.0
 4221583,-0.08235247,-0.01208617,-0.00001760,-0.00028769,-0.00044199,0.
 00025013,0.00072071,-0.00063870,0.00027532,0.00041920,-0.00037487,0.00
 078731,0.00659324,0.04533433,-0.24612849,0.21900728,-0.00028217,-0.000
 09221,-0.00027449,0.00012324,0.00008737,0.00016446,0.00019987,0.000030
 29,0.00016413,0.00027831,0.00004140,0.00017508,-0.00003424,0.00002269,
 -0.00002718,-0.00205435,0.00028293,-0.00158921,0.00043657,0.00078656,0
 .00021989,0.00113234,-0.00151317,-0.00002164,0.00119038,0.00358521,0.0
 0188876,0.00009377,0.00012191,-0.00002211,-0.00002346,-0.00015634,-0.0
 0014462,0.00078003,0.00019264,0.00263210,0.00077192,0.00064786,0.00023
 443,-0.00070017,-0.00045561,-0.00040706,0.00065562,0.00054199,0.000350
 15,-0.00041123,-0.00010567,-0.00022808,-0.00002866,-0.00005560,-0.0000
 6728,-0.00264733,-0.00801568,-0.00288053,0.00001313,0.00000441,-0.0000
 0300,-0.00000872,-0.00000907,0.00000618,0.00000270,-0.00000142,-0.0000
 0356,0.00000351,0.00000438,-0.00000474,0.00001297,0.00000353,0.0000063
 2,-0.00001554,-0.00000732,-0.00002590,-0.00001258,-0.00000058,0.000014
 78,-0.00000158,0.00000159,0.00001717,-0.00000490,-0.00000635,-0.000002
 12,-0.00026382,0.00008926,-0.00012504,0.00004597,-0.00004817,0.0000500
 1,0.00010960,0.00013682,0.00005511,-0.00003700,-0.00003260,-0.00014423
 ,0.00731244,-0.00555304,-0.00376034,-0.00149551,0.00127653,0.00219329,
 -0.00366429,0.00353187,-0.02304267,0.00232513,-0.00021494,0.00155617,0
 .00356891,0.00134232,-0.00192641,0.07428740,-0.05346190,-0.28320052,0.
 00000134,0.00026095,0.00014278,-0.00040510,-0.00156514,0.00065080,-0.0
 0075918,-0.00142100,0.00015217,-0.03490692,0.03931105,-0.07494032,0.10
 782524,-0.09287143,0.50121754,0.00019040,-0.00011219,-0.00012366,-0.00
 006962,0.00008625,0.00008120,-0.00006413,0.00002770,0.00001327,-0.0002
 1435,0.00002697,0.00001215,0.00002951,-0.00002994,-0.00001295,-0.00002
 608,0.00127287,0.00048020,-0.00017913,-0.00018492,-0.00004353,-0.00023
 215,0.00052918,-0.00004393,-0.00011221,-0.00030816,-0.00036888,-0.0000
 2268,-0.00001984,-0.00000017,-0.00000234,0.00002227,0.00000500,-0.0010
 2827,-0.00099185,-0.00107240,-0.00021883,-0.00062846,0.00009951,0.0001
 4136,0.00017010,0.00009084,-0.00024676,-0.00021687,-0.00004600,0.00019
 502,0.00002917,0.00006226,0.00000393,0.00001556,-0.00001594,-0.0000825
 4,0.00071128,0.00036037,-0.00000285,0.00001078,0.00000408,-0.00001025,
 0.00000837,0.00000134,0.00000815,0.00000307,-0.00000280,-0.00000334,-0
 .00000155,-0.00000068,0.00000314,-0.00000205,0.00000166,0.00000224,0.0
 0000152,-0.00000544,-0.00001738,-0.00000208,0.00000938,0.00000612,0.00
 000740,0.00000353,0.00000551,-0.00002341,-0.00000782,0.00025219,-0.000
 18266,0.00004847,-0.00003199,-0.00003666,-0.00002304,-0.00005968,0.000
 02425,0.00000682,0.00005754,-0.00003891,-0.00010634,-0.09780206,-0.121
 20406,-0.03356318,-0.01576867,-0.02936282,-0.00493172,-0.01039386,-0.0
 1380307,0.00262601,0.00068622,0.00075611,-0.00038322,-0.00009247,0.000
 17894,0.00229587,0.00002562,-0.00206188,0.00159974,0.00023558,0.000319
 53,0.00012305,0.00060028,-0.00049170,-0.00034491,0.00012733,-0.0002802
 5,-0.00002159,0.00047264,0.00092208,-0.00128062,0.00035734,-0.00050037
 ,-0.00186099,0.12307247,-0.00032786,-0.00000215,-0.00003346,0.00014790
 ,0.00002236,-0.00000012,0.00018000,0.00001192,0.00006632,0.00029149,0.
 00003039,0.00002590,-0.00006988,0.00003346,0.00001161,0.00210043,-0.00
 470009,-0.00006781,0.00002242,0.00027567,0.00002603,0.00017423,-0.0005
 2961,-0.00000149,-0.00123262,0.00054664,0.00001782,0.00000170,0.000018
 09,0.00000353,-0.00003627,0.00004041,-0.00000506,-0.00138653,0.0012249
 2,0.00010071,0.00019540,0.00150671,0.00006784,0.00015014,-0.00081576,-
 0.00011632,0.00026590,0.00044438,0.00008651,-0.00028633,-0.00010232,-0
 .00010662,-0.00002550,-0.00001137,0.00000403,0.00034384,0.00039695,-0.
 00013302,0.00000518,-0.00001399,-0.00000399,-0.00000674,-0.00001041,-0
 .00000843,0.00000129,0.00000069,0.00000074,0.00001227,0.00000238,-0.00
 000200,0.00000064,0.00000260,0.00000156,-0.00000370,-0.00000152,0.0000
 0392,0.00001075,-0.00000148,-0.00000640,-0.00000177,-0.00000056,0.0000
 0025,-0.00001312,0.00001264,0.00001576,-0.00027379,0.00005097,-0.00003
 965,0.00000576,-0.00001274,0.00001006,0.00004769,0.00001843,0.00003614
 ,-0.00011449,-0.00001477,-0.00003684,-0.17420270,-0.33336168,-0.041378
 35,0.01008080,0.00653066,0.00209502,-0.00096974,-0.01267877,-0.0048443
 5,0.00019650,0.00015669,-0.00030733,-0.00080760,-0.00030482,0.00378380
 ,0.00071853,0.00278993,-0.00082945,0.00006925,0.00015108,-0.00009531,-
 0.00071364,-0.00058267,-0.00024369,0.00003344,0.00042716,0.00002324,-0
 .00004423,-0.00098001,-0.00017421,0.00009311,-0.00063053,-0.00030405,0
 .16546610,0.33999290,-0.00031623,0.00000525,0.00001230,0.00014224,0.00
 002596,-0.00004099,0.00016210,0.00001268,0.00004509,0.00028938,0.00003
 552,0.00000570,-0.00006448,0.00002449,0.00001673,0.00245324,-0.0039216
 9,0.00081496,-0.00000226,0.00031516,0.00000019,0.00012073,-0.00052980,
 0.00001784,-0.00149317,0.00079524,-0.00029627,-0.00000337,0.00002198,0
 .00001038,-0.00005609,0.00005522,0.00000712,-0.00172491,0.00308907,-0.
 00054491,0.00006075,0.00209901,-0.00000251,0.00027598,-0.00084815,-0.0
 0005693,0.00025318,0.00051600,0.00004588,-0.00027794,-0.00010972,-0.00
 008937,-0.00003035,0.00000465,0.00001822,0.00021358,0.00013641,0.00020
 140,0.00000026,-0.00001348,-0.00000095,-0.00000913,-0.00000650,-0.0000
 1596,0.00000443,0.00000295,0.00000110,0.00001207,0.00000070,-0.0000000
 7,-0.00000238,0.00000055,0.00000048,0.00000395,-0.00000055,0.00001008,
 0.00001244,-0.00000337,-0.00000781,0.00000009,0.00000184,-0.00000458,-
 0.00001185,0.00001201,0.00002216,-0.00028918,0.00002391,-0.00004605,0.
 00001105,0.00004442,0.00002800,0.00006187,-0.00000134,0.00001480,-0.00
 013308,-0.00008600,0.00004917,-0.04970572,-0.05555920,-0.06948439,-0.0
 1047505,-0.02683541,-0.00394463,0.02091087,0.03409033,0.00257177,-0.00
 057958,0.00034660,0.00046448,0.00251888,0.00118590,-0.00639998,0.00072
 129,0.00192423,-0.00017053,0.00023276,-0.00021528,0.00002432,0.0009279
 5,0.00194294,0.00032395,-0.00033827,-0.00029530,-0.00011846,0.00014893
 ,-0.00051103,0.00024085,-0.00027294,-0.00026528,-0.00000324,0.03614858
 ,0.04218147,0.07631966,-0.00006212,-0.00004679,-0.00004078,0.00003294,
 0.00004434,0.00001475,0.00004639,0.00002111,0.00002222,0.00004000,0.00
 002924,0.00000477,-0.00001818,-0.00000374,0.00000375,0.00062504,-0.000
 84925,0.00001348,-0.00002907,0.00005072,0.00000305,0.00001649,-0.00009
 418,0.00000038,-0.00040523,0.00006977,0.00000465,-0.00000426,0.0000046
 3,-0.00000322,-0.00001222,0.00001549,-0.00000453,-0.00036091,0.0007389
 0,-0.00041662,-0.00002549,0.00037437,0.00003166,0.00009521,-0.00024118
 ,0.00001414,0.00002923,0.00011668,0.00000967,-0.00004159,-0.00003556,-
 0.00001273,-0.00001045,0.00000190,-0.00000220,0.00013972,0.00042116,-0
 .00008805,-0.00000183,-0.00000190,0.00000223,-0.00000995,0.00000051,-0
 .00000774,0.00000631,0.00000337,-0.00000125,0.00000475,-0.00000050,-0.
 00000030,-0.00000037,-0.00000133,0.00000098,0.00000456,0.00000076,0.00
 000428,-0.00000137,-0.00000224,-0.00000061,0.00000195,0.00000400,-0.00
 000226,-0.00000311,-0.00000324,0.00000621,-0.00000211,-0.00002650,-0.0
 0001439,-0.00001846,0.00000546,-0.00000837,-0.00000457,-0.00002373,0.0
 0000287,-0.00002181,-0.00001630,0.00003446,-0.00094574,0.00039543,-0.0
 0060435,0.00023898,0.00025506,-0.00009414,0.00189269,-0.00119196,0.004
 45813,-0.00176290,0.00068293,0.00042949,0.00000773,0.00038328,-0.00082
 824,-0.00190246,-0.00386026,0.00081973,-0.00017676,-0.00023297,0.00005
 397,-0.00004168,-0.00061261,0.00022063,-0.00006416,-0.00007956,0.00026
 409,0.00599087,0.00086458,0.00338905,-0.26336676,0.19399848,-0.1515526
 7,0.00020904,-0.00009825,0.00009937,0.25991166,-0.00022595,-0.00002440
 ,-0.00002056,0.00009957,0.00003485,-0.00000608,0.00012834,0.00002074,0
 .00004127,0.00018454,0.00003487,-0.00000194,-0.00005394,0.00001510,0.0
 0001150,0.00061729,-0.00145411,0.00013376,0.00002757,0.00014854,0.0000
 0148,0.00015765,-0.00031898,0.00002247,-0.00045234,0.00039839,-0.00003
 622,0.00000342,0.00001440,0.00000449,-0.00002035,0.00001950,0.00000295
 ,-0.00013270,0.00109918,-0.00090633,0.00006306,0.00059809,0.00005374,0
 .00002653,-0.00043236,0.00003591,0.00015987,0.00025173,0.00001721,-0.0
 0016429,-0.00007494,-0.00004628,-0.00002031,-0.00001016,0.00000240,0.0
 0017460,-0.00001744,-0.00023003,0.00000125,-0.00000986,0.00000023,-0.0
 0001274,-0.00000497,-0.00001152,0.00000637,0.00000319,-0.00000043,0.00
 001113,0.00000089,-0.00000200,-0.00000025,0.00000091,0.00000195,0.0000
 0335,-0.00000072,0.00000542,0.00000353,-0.00000274,-0.00000428,0.00000
 066,0.00000351,-0.00000152,-0.00000893,0.00000334,0.00001378,-0.000081
 68,0.00001681,-0.00002077,-0.00001945,0.00000853,-0.00000871,-0.000003
 35,-0.00003421,0.00000793,-0.00005309,-0.00001686,0.00004222,-0.000061
 50,-0.00056393,0.00069165,-0.00020713,-0.00001441,-0.00003257,-0.00041
 647,-0.00076154,-0.00303676,0.00052131,0.00090864,-0.00035720,0.000625
 24,0.00039736,-0.00110437,-0.00281871,-0.00447188,0.00211538,-0.000073
 68,-0.00004248,0.00030116,-0.00039510,-0.00074367,0.00012736,-0.000146
 15,-0.00026417,0.00022576,0.00138300,0.00709352,-0.00124266,0.19233572
 ,-0.15706823,0.11358773,-0.00010580,0.00006721,0.00030762,-0.19106010,
 0.15519278,0.00008759,0.00004228,0.00009761,-0.00004114,-0.00004055,-0
 .00005528,-0.00006481,-0.00001272,-0.00005561,-0.00007705,-0.00001903,
 -0.00005099,0.00001159,-0.00000553,0.00000901,-0.00037248,0.00115293,0
 .00010828,-0.00005943,-0.00015238,-0.00003881,-0.00012278,0.00032841,0
 .00001971,0.00028939,-0.00039431,0.00005828,-0.00000708,-0.00001498,0.
 00000427,0.00001231,-0.00000003,0.00001016,0.00016145,-0.00110813,-0.0
 0005867,-0.00009055,-0.00056153,-0.00010728,0.00002067,0.00027014,0.00
 005809,-0.00013494,-0.00018933,-0.00008257,0.00011367,0.00003787,0.000
 06228,0.00000891,0.00000468,0.00001759,0.00001797,0.00020022,-0.000166
 84,-0.00000370,-0.00000183,0.00000043,0.00000386,0.00000232,-0.0000006
 3,-0.00000185,0.00000006,0.00000115,-0.00000129,-0.00000128,0.00000138
 ,-0.00000425,-0.00000100,-0.00000211,0.00000442,0.00000242,0.00000825,
 0.00000461,0.00000058,-0.00000520,-0.00000028,-0.00000129,-0.00000548,
 0.00000168,0.00000345,-0.00000045,0.00009428,0.00000512,0.00004419,-0.
 00000694,0.00000925,-0.00001179,-0.00002547,-0.00003501,-0.00001907,0.
 00003009,0.00002160,0.00003719,-0.00017436,0.00044377,0.00209511,-0.00
 028106,-0.00011306,0.00039075,0.00003387,-0.00113358,-0.00148505,0.002
 54806,-0.00092838,0.00015900,-0.00029616,-0.00042393,0.00008689,-0.040
 00968,0.03239123,-0.02064739,0.00016320,0.00028233,0.00020355,-0.00006
 521,-0.00027812,0.00001991,0.00002594,0.00019396,0.00018246,0.00269014
 ,-0.00177318,-0.00976280,-0.10844412,0.08230602,-0.11904704,0.00018649
 ,0.00017569,-0.00003903,0.14377444,-0.11068514,0.14796659\\-0.00000022
 ,-0.00000010,0.00000060,0.00000021,-0.00000031,0.00000060,-0.00000028,
 -0.00000008,0.00000084,-0.00000006,0.00000002,-0.00000007,-0.00000033,
 -0.00000015,0.00000127,-0.00000001,0.00000047,-0.00000086,0.00000030,0
 .00000036,-0.00000199,0.00000040,0.00000027,-0.00000197,0.00000024,0.0
 0000042,-0.00000157,0.00000039,0.00000043,-0.00000232,0.00000033,0.000
 00054,-0.00000254,-0.00000017,0.00000026,-0.00000048,0.00025430,0.0022
 8087,-0.00068779,0.00000011,-0.00000006,-0.00000137,0.00000027,-0.0000
 0005,-0.00000089,-0.00000014,0.00000030,-0.00000071,0.00000045,0.00000
 037,-0.00000145,-0.00000016,0.00000042,-0.00000180,-0.00008412,0.00056
 470,-0.00018367,-0.00000004,-0.00000069,0.00000311,0.00000010,-0.00000
 081,0.00000300,0.00000001,-0.00000088,0.00000347,-0.00000062,-0.000000
 55,0.00000317,0.00000075,-0.00000086,0.00000188,0.00000092,-0.00000099
 ,0.00000255,0.00000100,-0.00000095,0.00000223,0.00000087,-0.00000063,0
 .00000191,-0.00017060,-0.00284595,0.00087293,0.00000036,-0.00000013,0.
 00000002,-0.00000045,0.00000020,-0.00000007,-0.00000010,0.00000002,0.0
 0000019,0.00000032,0.00000007,-0.00000017,0.00000071,-0.00000022,-0.00
 000068,-0.00000037,0.00000021,-0.00000039,-0.00000060,0.00000018,-0.00
 000009,-0.00000038,0.00000034,-0.00000052,-0.00000054,0.00000044,-0.00
 000151,-0.00000005,0.00000025,-0.00000088,-0.00000083,0.00000049,-0.00
 000064,-0.00000028,0.00000012,-0.00000004,0.00000024,0.00000032,-0.000
 00132,-0.00000093,0.00000073,-0.00000096,0.00000033,-0.00000009,-0.000
 00026,-0.00000133,0.00000072,-0.00000078\\\@


 REPARTEE - WHAT YOU THINK OF AFTER YOU BECOME A DEPARTEE.
 Job cpu time:       0 days  1 hours 44 minutes 36.2 seconds.
 File lengths (MBytes):  RWF=    760 Int=      0 D2E=      0 Chk=     12 Scr=      1
 Normal termination of Gaussian 09 at Fri Apr  9 03:32:14 2021.
