 Entering Gaussian System, Link 0=g09
 Initial command:
 /opt/software/gaussian/g09.e01/l1.exe "/localscratch/enas93.64554938.0/Gau-72885.inp" -scrdir="/localscratch/enas93.64554938.0/"
 Entering Link 1 = /opt/software/gaussian/g09.e01/l1.exe PID=     72886.
  
 Copyright (c) 1988,1990,1992,1993,1995,1998,2003,2009,2015,
            Gaussian, Inc.  All Rights Reserved.
  
 This is part of the Gaussian(R) 09 program.  It is based on
 the Gaussian(R) 03 system (copyright 2003, Gaussian, Inc.),
 the Gaussian(R) 98 system (copyright 1998, Gaussian, Inc.),
 the Gaussian(R) 94 system (copyright 1995, Gaussian, Inc.),
 the Gaussian 92(TM) system (copyright 1992, Gaussian, Inc.),
 the Gaussian 90(TM) system (copyright 1990, Gaussian, Inc.),
 the Gaussian 88(TM) system (copyright 1988, Gaussian, Inc.),
 the Gaussian 86(TM) system (copyright 1986, Carnegie Mellon
 University), and the Gaussian 82(TM) system (copyright 1983,
 Carnegie Mellon University). Gaussian is a federally registered
 trademark of Gaussian, Inc.
  
 This software contains proprietary and confidential information,
 including trade secrets, belonging to Gaussian, Inc.
  
 This software is provided under written license and may be
 used, copied, transmitted, or stored only in accord with that
 written license.
  
 The following legend is applicable only to US Government
 contracts under FAR:
  
                    RESTRICTED RIGHTS LEGEND
  
 Use, reproduction and disclosure by the US Government is
 subject to restrictions as set forth in subparagraphs (a)
 and (c) of the Commercial Computer Software - Restricted
 Rights clause in FAR 52.227-19.
  
 Gaussian, Inc.
 340 Quinnipiac St., Bldg. 40, Wallingford CT 06492
  
  
 ---------------------------------------------------------------
 Warning -- This program may not be used in any manner that
 competes with the business of Gaussian, Inc. or will provide
 assistance to any competitor of Gaussian, Inc.  The licensee
 of this program is prohibited from giving any competitor of
 Gaussian, Inc. access to this program.  By using this program,
 the user acknowledges that Gaussian, Inc. is engaged in the
 business of creating and licensing software in the field of
 computational chemistry and represents and warrants to the
 licensee that it is not a competitor of Gaussian, Inc. and that
 it will not use this program in any manner prohibited above.
 ---------------------------------------------------------------
  

 Cite this work as:
 Gaussian 09, Revision E.01,
 M. J. Frisch, G. W. Trucks, H. B. Schlegel, G. E. Scuseria, 
 M. A. Robb, J. R. Cheeseman, G. Scalmani, V. Barone, B. Mennucci, 
 G. A. Petersson, H. Nakatsuji, M. Caricato, X. Li, H. P. Hratchian, 
 A. F. Izmaylov, J. Bloino, G. Zheng, J. L. Sonnenberg, M. Hada, 
 M. Ehara, K. Toyota, R. Fukuda, J. Hasegawa, M. Ishida, T. Nakajima, 
 Y. Honda, O. Kitao, H. Nakai, T. Vreven, J. A. Montgomery, Jr., 
 J. E. Peralta, F. Ogliaro, M. Bearpark, J. J. Heyd, E. Brothers, 
 K. N. Kudin, V. N. Staroverov, T. Keith, R. Kobayashi, J. Normand, 
 K. Raghavachari, A. Rendell, J. C. Burant, S. S. Iyengar, J. Tomasi, 
 M. Cossi, N. Rega, J. M. Millam, M. Klene, J. E. Knox, J. B. Cross, 
 V. Bakken, C. Adamo, J. Jaramillo, R. Gomperts, R. E. Stratmann, 
 O. Yazyev, A. J. Austin, R. Cammi, C. Pomelli, J. W. Ochterski, 
 R. L. Martin, K. Morokuma, V. G. Zakrzewski, G. A. Voth, 
 P. Salvador, J. J. Dannenberg, S. Dapprich, A. D. Daniels, 
 O. Farkas, J. B. Foresman, J. V. Ortiz, J. Cioslowski, 
 and D. J. Fox, Gaussian, Inc., Wallingford CT, 2013.
 
 ******************************************
 Gaussian 09:  EM64L-G09RevE.01 30-Nov-2015
                24-Mar-2021 
 ******************************************
 %nprocshared=16
 Will use up to   16 processors via shared memory.
 %mem=10GB
 ----------------------------------------------------------------------
 # opt=(calcall,tight,ts,modredundant,noeigentest) freq apfd/6-31g(d) n
 osymm
 ----------------------------------------------------------------------
 1/5=1,7=10,10=4,11=1,14=-1,18=120,26=3,38=1/1,3;
 2/9=110,12=2,15=1,17=6,18=5,40=1/2;
 3/5=1,6=6,7=1,11=2,16=1,25=1,30=1,71=2,74=-44,140=1/1,2,3;
 4//1;
 5/5=2,38=5/2;
 8/6=4,10=90,11=11/1;
 11/6=1,8=1,9=11,15=111,16=1,31=1/1,2,10;
 10/6=1,31=1/2;
 6/7=2,8=2,9=2,10=2,18=1,28=1/1;
 7/10=1,25=1,30=1/1,2,3,16;
 1/5=1,7=10,10=4,11=1,14=-1,18=20,26=3/3(3);
 2/9=110,15=1/2;
 7/8=1,9=1,25=1,30=1,44=-1/16;
 99//99;
 2/9=110,15=1/2;
 3/5=1,6=6,7=1,11=2,16=1,25=1,30=1,71=2,74=-44,140=1/1,2,3;
 4/5=5,16=3,69=1/1;
 5/5=2,38=5/2;
 8/6=4,10=90,11=11/1;
 11/6=1,8=1,9=11,15=111,16=1,31=1/1,2,10;
 10/6=1,31=1/2;
 7/10=1,25=1,30=1/1,2,3,16;
 1/5=1,7=10,10=4,11=1,14=-1,18=20,26=3/3(-8);
 2/9=110,15=1/2;
 6/7=2,8=2,9=2,10=2,18=1,19=2,28=1/1;
 7/8=1,9=1,25=1,30=1,44=-1/16;
 99//99;
 -------------------
 Title Card Required
 -------------------
 Symbolic Z-matrix:
 Charge =  0 Multiplicity = 1
 C                    -2.19019  -1.93036  -0.04322 
 O                    -2.14904  -1.27      1.01925 
 O                    -3.35     -2.61203  -0.30666 
 O                    -1.30641  -2.04639  -0.92737 
 H                    -3.92409  -2.4188    0.4489 
 C                     2.54329   1.22411   0.10334 
 C                     3.48175  -1.41987   0.24067 
 C                     4.33254  -0.38823   0.41875 
 N                     3.88688   0.8943    0.35013 
 H                     3.81698  -2.44707   0.29102 
 H                     5.38948  -0.52143   0.6205 
 O                     2.21002   2.39729   0.07722 
 N                     1.69307   0.1739   -0.09171 
 C                     2.09391  -1.10107  -0.02582 
 N                     1.21197  -2.06814  -0.20861 
 H                     0.17416  -1.93596  -0.45 
 H                     1.53863  -3.02249  -0.15793 
 H                     4.50458   1.68245   0.48903 
 S                    -2.44581   1.29062  -0.34196 
 C                    -2.27809   2.97044  -0.99731 
 H                    -3.20462   3.52834  -0.84708 
 H                    -1.44761   3.49371  -0.51492 
 H                    -2.07986   2.89036  -2.06771 
 C                    -2.63406   1.67136   1.41287 
 H                    -1.76022   2.22192   1.77293 
 H                    -3.54105   2.25799   1.57107 
 H                    -2.70564   0.70083   1.90573 
 C                    -0.29541   0.69886  -0.26252 
 H                    -0.53251   0.02467   0.55423 
 H                    -0.30108   0.28316  -1.26019 
 H                     0.0528    1.71194  -0.09838 
 
 Add virtual bond connecting atoms H16        and O4         Dist= 2.95D+00.
 Add virtual bond connecting atoms C28        and N13        Dist= 3.90D+00.
 Add virtual bond connecting atoms H29        and O2         Dist= 4.01D+00.
 Add virtual bond connecting atoms S19        and C28        Dist= 4.22D+00.
 Add virtual bond connecting atoms H22        and H31        Dist= 4.47D+00.
 Add virtual bond connecting atoms H27        and O2         Dist= 4.22D+00.
 The following ModRedundant input section has been read:
 A      13      28      19 F                                                   
 X      16 F                                                                   
 

 GradGradGradGradGradGradGradGradGradGradGradGradGradGradGradGradGradGrad
 Berny optimization.
 Initialization pass.
                           ----------------------------
                           !    Initial Parameters    !
                           ! (Angstroms and Degrees)  !
 --------------------------                            --------------------------
 ! Name  Definition              Value          Derivative Info.                !
 --------------------------------------------------------------------------------
 ! X16   R(16,-1)                0.1742         frozen, calculate D2E/DX2 analyt!
 ! Y16   R(16,-2)               -1.936          frozen, calculate D2E/DX2 analyt!
 ! Z16   R(16,-3)               -0.45           frozen, calculate D2E/DX2 analyt!
 ! R1    R(1,2)                  1.2516         calculate D2E/DX2 analytically  !
 ! R2    R(1,3)                  1.3709         calculate D2E/DX2 analytically  !
 ! R3    R(1,4)                  1.2555         calculate D2E/DX2 analytically  !
 ! R4    R(2,27)                 2.2316         calculate D2E/DX2 analytically  !
 ! R5    R(2,29)                 2.1226         calculate D2E/DX2 analytically  !
 ! R6    R(3,5)                  0.9684         calculate D2E/DX2 analytically  !
 ! R7    R(4,16)                 1.5595         calculate D2E/DX2 analytically  !
 ! R8    R(6,9)                  1.4053         calculate D2E/DX2 analytically  !
 ! R9    R(6,12)                 1.2199         calculate D2E/DX2 analytically  !
 ! R10   R(6,13)                 1.3652         calculate D2E/DX2 analytically  !
 ! R11   R(7,8)                  1.349          calculate D2E/DX2 analytically  !
 ! R12   R(7,10)                 1.0817         calculate D2E/DX2 analytically  !
 ! R13   R(7,14)                 1.4487         calculate D2E/DX2 analytically  !
 ! R14   R(8,9)                  1.3595         calculate D2E/DX2 analytically  !
 ! R15   R(8,11)                 1.0842         calculate D2E/DX2 analytically  !
 ! R16   R(9,18)                 1.011          calculate D2E/DX2 analytically  !
 ! R17   R(13,14)                1.3381         calculate D2E/DX2 analytically  !
 ! R18   R(13,28)                2.0637         calculate D2E/DX2 analytically  !
 ! R19   R(14,15)                1.3215         calculate D2E/DX2 analytically  !
 ! R20   R(15,16)                1.0737         calculate D2E/DX2 analytically  !
 ! R21   R(15,17)                1.01           calculate D2E/DX2 analytically  !
 ! R22   R(19,20)                1.8109         calculate D2E/DX2 analytically  !
 ! R23   R(19,24)                1.8055         calculate D2E/DX2 analytically  !
 ! R24   R(19,28)                2.2318         calculate D2E/DX2 analytically  !
 ! R25   R(20,21)                1.0919         calculate D2E/DX2 analytically  !
 ! R26   R(20,22)                1.0937         calculate D2E/DX2 analytically  !
 ! R27   R(20,23)                1.0915         calculate D2E/DX2 analytically  !
 ! R28   R(22,31)                2.3663         calculate D2E/DX2 analytically  !
 ! R29   R(24,25)                1.0938         calculate D2E/DX2 analytically  !
 ! R30   R(24,26)                1.0917         calculate D2E/DX2 analytically  !
 ! R31   R(24,27)                1.0909         calculate D2E/DX2 analytically  !
 ! R32   R(28,29)                1.0853         calculate D2E/DX2 analytically  !
 ! R33   R(28,30)                1.0808         calculate D2E/DX2 analytically  !
 ! R34   R(28,31)                1.0838         calculate D2E/DX2 analytically  !
 ! A1    A(2,1,3)              116.9552         calculate D2E/DX2 analytically  !
 ! A2    A(2,1,4)              128.5655         calculate D2E/DX2 analytically  !
 ! A3    A(3,1,4)              114.4735         calculate D2E/DX2 analytically  !
 ! A4    A(1,2,27)             142.6515         calculate D2E/DX2 analytically  !
 ! A5    A(1,2,29)              99.2574         calculate D2E/DX2 analytically  !
 ! A6    A(27,2,29)             74.8293         calculate D2E/DX2 analytically  !
 ! A7    A(1,3,5)              104.6195         calculate D2E/DX2 analytically  !
 ! A8    A(1,4,16)             116.499          calculate D2E/DX2 analytically  !
 ! A9    A(9,6,12)             119.3841         calculate D2E/DX2 analytically  !
 ! A10   A(9,6,13)             116.1023         calculate D2E/DX2 analytically  !
 ! A11   A(12,6,13)            124.5136         calculate D2E/DX2 analytically  !
 ! A12   A(8,7,10)             121.6419         calculate D2E/DX2 analytically  !
 ! A13   A(8,7,14)             117.3984         calculate D2E/DX2 analytically  !
 ! A14   A(10,7,14)            120.9595         calculate D2E/DX2 analytically  !
 ! A15   A(7,8,9)              120.5329         calculate D2E/DX2 analytically  !
 ! A16   A(7,8,11)             123.0531         calculate D2E/DX2 analytically  !
 ! A17   A(9,8,11)             116.414          calculate D2E/DX2 analytically  !
 ! A18   A(6,9,8)              122.9348         calculate D2E/DX2 analytically  !
 ! A19   A(6,9,18)             115.172          calculate D2E/DX2 analytically  !
 ! A20   A(8,9,18)             121.8867         calculate D2E/DX2 analytically  !
 ! A21   A(6,13,14)            122.6398         calculate D2E/DX2 analytically  !
 ! A22   A(6,13,28)            114.596          calculate D2E/DX2 analytically  !
 ! A23   A(14,13,28)           122.3499         calculate D2E/DX2 analytically  !
 ! A24   A(7,14,13)            120.3781         calculate D2E/DX2 analytically  !
 ! A25   A(7,14,15)            120.247          calculate D2E/DX2 analytically  !
 ! A26   A(13,14,15)           119.3748         calculate D2E/DX2 analytically  !
 ! A27   A(14,15,16)           125.8788         calculate D2E/DX2 analytically  !
 ! A28   A(14,15,17)           117.9489         calculate D2E/DX2 analytically  !
 ! A29   A(16,15,17)           116.1192         calculate D2E/DX2 analytically  !
 ! A30   A(20,19,24)            99.5422         calculate D2E/DX2 analytically  !
 ! A31   A(20,19,28)            99.7645         calculate D2E/DX2 analytically  !
 ! A32   A(24,19,28)            96.995          calculate D2E/DX2 analytically  !
 ! A33   A(19,20,21)           110.2168         calculate D2E/DX2 analytically  !
 ! A34   A(19,20,22)           110.7636         calculate D2E/DX2 analytically  !
 ! A35   A(19,20,23)           107.6766         calculate D2E/DX2 analytically  !
 ! A36   A(21,20,22)           109.8268         calculate D2E/DX2 analytically  !
 ! A37   A(21,20,23)           109.0563         calculate D2E/DX2 analytically  !
 ! A38   A(22,20,23)           109.2519         calculate D2E/DX2 analytically  !
 ! A39   A(20,22,31)           101.4699         calculate D2E/DX2 analytically  !
 ! A40   A(19,24,25)           110.0476         calculate D2E/DX2 analytically  !
 ! A41   A(19,24,26)           109.9248         calculate D2E/DX2 analytically  !
 ! A42   A(19,24,27)           104.9722         calculate D2E/DX2 analytically  !
 ! A43   A(25,24,26)           110.2166         calculate D2E/DX2 analytically  !
 ! A44   A(25,24,27)           110.5808         calculate D2E/DX2 analytically  !
 ! A45   A(26,24,27)           110.983          calculate D2E/DX2 analytically  !
 ! A46   A(2,27,24)            126.1503         calculate D2E/DX2 analytically  !
 ! A47   A(13,28,19)           177.2272         frozen, calculate D2E/DX2 analyt!
 ! A48   A(13,28,29)            89.4381         calculate D2E/DX2 analytically  !
 ! A49   A(13,28,30)            89.0616         calculate D2E/DX2 analytically  !
 ! A50   A(13,28,31)            85.1622         calculate D2E/DX2 analytically  !
 ! A51   A(19,28,29)            88.9114         calculate D2E/DX2 analytically  !
 ! A52   A(19,28,30)            93.6733         calculate D2E/DX2 analytically  !
 ! A53   A(19,28,31)            93.8482         calculate D2E/DX2 analytically  !
 ! A54   A(29,28,30)           117.0394         calculate D2E/DX2 analytically  !
 ! A55   A(29,28,31)           122.4737         calculate D2E/DX2 analytically  !
 ! A56   A(30,28,31)           120.0675         calculate D2E/DX2 analytically  !
 ! A57   A(2,29,28)            135.247          calculate D2E/DX2 analytically  !
 ! A58   A(22,31,28)           118.2608         calculate D2E/DX2 analytically  !
 ! A59   L(4,16,15,25,-1)      191.9374         calculate D2E/DX2 analytically  !
 ! A60   L(4,16,15,25,-2)      177.877          calculate D2E/DX2 analytically  !
 ! D1    D(3,1,2,27)           -84.0695         calculate D2E/DX2 analytically  !
 ! D2    D(3,1,2,29)          -161.1561         calculate D2E/DX2 analytically  !
 ! D3    D(4,1,2,27)            95.0028         calculate D2E/DX2 analytically  !
 ! D4    D(4,1,2,29)            17.9162         calculate D2E/DX2 analytically  !
 ! D5    D(2,1,3,5)             -0.2219         calculate D2E/DX2 analytically  !
 ! D6    D(4,1,3,5)           -179.4249         calculate D2E/DX2 analytically  !
 ! D7    D(2,1,4,16)            29.9088         calculate D2E/DX2 analytically  !
 ! D8    D(3,1,4,16)          -150.9997         calculate D2E/DX2 analytically  !
 ! D9    D(1,2,27,24)          -38.9586         calculate D2E/DX2 analytically  !
 ! D10   D(29,2,27,24)          46.4209         calculate D2E/DX2 analytically  !
 ! D11   D(1,2,29,28)           53.0052         calculate D2E/DX2 analytically  !
 ! D12   D(27,2,29,28)         -89.212          calculate D2E/DX2 analytically  !
 ! D13   D(1,4,15,14)          -88.0907         calculate D2E/DX2 analytically  !
 ! D14   D(1,4,15,17)           98.2613         calculate D2E/DX2 analytically  !
 ! D15   D(12,6,9,8)           178.7932         calculate D2E/DX2 analytically  !
 ! D16   D(12,6,9,18)           -0.2936         calculate D2E/DX2 analytically  !
 ! D17   D(13,6,9,8)            -1.134          calculate D2E/DX2 analytically  !
 ! D18   D(13,6,9,18)          179.7792         calculate D2E/DX2 analytically  !
 ! D19   D(9,6,13,14)            1.4286         calculate D2E/DX2 analytically  !
 ! D20   D(9,6,13,28)          174.1958         calculate D2E/DX2 analytically  !
 ! D21   D(12,6,13,14)        -178.4944         calculate D2E/DX2 analytically  !
 ! D22   D(12,6,13,28)          -5.7273         calculate D2E/DX2 analytically  !
 ! D23   D(10,7,8,9)           179.9744         calculate D2E/DX2 analytically  !
 ! D24   D(10,7,8,11)           -0.0044         calculate D2E/DX2 analytically  !
 ! D25   D(14,7,8,9)             0.1341         calculate D2E/DX2 analytically  !
 ! D26   D(14,7,8,11)         -179.8448         calculate D2E/DX2 analytically  !
 ! D27   D(8,7,14,13)            0.152          calculate D2E/DX2 analytically  !
 ! D28   D(8,7,14,15)         -179.9715         calculate D2E/DX2 analytically  !
 ! D29   D(10,7,14,13)        -179.6894         calculate D2E/DX2 analytically  !
 ! D30   D(10,7,14,15)           0.187          calculate D2E/DX2 analytically  !
 ! D31   D(7,8,9,6)              0.3789         calculate D2E/DX2 analytically  !
 ! D32   D(7,8,9,18)           179.4054         calculate D2E/DX2 analytically  !
 ! D33   D(11,8,9,6)          -179.6409         calculate D2E/DX2 analytically  !
 ! D34   D(11,8,9,18)           -0.6143         calculate D2E/DX2 analytically  !
 ! D35   D(6,13,14,7)           -0.9856         calculate D2E/DX2 analytically  !
 ! D36   D(6,13,14,15)         179.1369         calculate D2E/DX2 analytically  !
 ! D37   D(28,13,14,7)        -173.1975         calculate D2E/DX2 analytically  !
 ! D38   D(28,13,14,15)          6.925          calculate D2E/DX2 analytically  !
 ! D39   D(6,13,28,29)        -124.1561         calculate D2E/DX2 analytically  !
 ! D40   D(6,13,28,30)         118.7889         calculate D2E/DX2 analytically  !
 ! D41   D(6,13,28,31)          -1.4936         calculate D2E/DX2 analytically  !
 ! D42   D(14,13,28,29)         48.6345         calculate D2E/DX2 analytically  !
 ! D43   D(14,13,28,30)        -68.4206         calculate D2E/DX2 analytically  !
 ! D44   D(14,13,28,31)        171.2969         calculate D2E/DX2 analytically  !
 ! D45   D(7,14,15,16)        -177.3555         calculate D2E/DX2 analytically  !
 ! D46   D(7,14,15,17)          -0.1213         calculate D2E/DX2 analytically  !
 ! D47   D(13,14,15,16)          2.5222         calculate D2E/DX2 analytically  !
 ! D48   D(13,14,15,17)        179.7565         calculate D2E/DX2 analytically  !
 ! D49   D(24,19,20,21)        -65.2641         calculate D2E/DX2 analytically  !
 ! D50   D(24,19,20,22)         56.4833         calculate D2E/DX2 analytically  !
 ! D51   D(24,19,20,23)        175.8848         calculate D2E/DX2 analytically  !
 ! D52   D(28,19,20,21)       -164.1365         calculate D2E/DX2 analytically  !
 ! D53   D(28,19,20,22)        -42.3891         calculate D2E/DX2 analytically  !
 ! D54   D(28,19,20,23)         77.0123         calculate D2E/DX2 analytically  !
 ! D55   D(20,19,24,25)        -58.8937         calculate D2E/DX2 analytically  !
 ! D56   D(20,19,24,26)         62.6773         calculate D2E/DX2 analytically  !
 ! D57   D(20,19,24,27)       -177.9022         calculate D2E/DX2 analytically  !
 ! D58   D(28,19,24,25)         42.2864         calculate D2E/DX2 analytically  !
 ! D59   D(28,19,24,26)        163.8574         calculate D2E/DX2 analytically  !
 ! D60   D(28,19,24,27)        -76.7222         calculate D2E/DX2 analytically  !
 ! D61   D(20,19,28,29)        152.2546         calculate D2E/DX2 analytically  !
 ! D62   D(20,19,28,30)        -90.719          calculate D2E/DX2 analytically  !
 ! D63   D(20,19,28,31)         29.7787         calculate D2E/DX2 analytically  !
 ! D64   D(24,19,28,29)         51.2676         calculate D2E/DX2 analytically  !
 ! D65   D(24,19,28,30)        168.294          calculate D2E/DX2 analytically  !
 ! D66   D(24,19,28,31)        -71.2084         calculate D2E/DX2 analytically  !
 ! D67   D(19,20,22,31)         32.375          calculate D2E/DX2 analytically  !
 ! D68   D(21,20,22,31)        154.351          calculate D2E/DX2 analytically  !
 ! D69   D(23,20,22,31)        -86.0746         calculate D2E/DX2 analytically  !
 ! D70   D(20,22,31,28)         -9.1791         calculate D2E/DX2 analytically  !
 ! D71   D(19,24,27,2)          15.7565         calculate D2E/DX2 analytically  !
 ! D72   D(25,24,27,2)        -102.8934         calculate D2E/DX2 analytically  !
 ! D73   D(26,24,27,2)         134.4668         calculate D2E/DX2 analytically  !
 ! D74   D(13,28,29,2)        -143.714          calculate D2E/DX2 analytically  !
 ! D75   D(19,28,29,2)          38.5141         calculate D2E/DX2 analytically  !
 ! D76   D(30,28,29,2)         -55.0545         calculate D2E/DX2 analytically  !
 ! D77   D(31,28,29,2)         132.383          calculate D2E/DX2 analytically  !
 ! D78   D(13,28,31,22)        167.5433         calculate D2E/DX2 analytically  !
 ! D79   D(19,28,31,22)        -15.0544         calculate D2E/DX2 analytically  !
 ! D80   D(29,28,31,22)       -106.2141         calculate D2E/DX2 analytically  !
 ! D81   D(30,28,31,22)         81.4418         calculate D2E/DX2 analytically  !
 --------------------------------------------------------------------------------
 Trust Radius=3.00D-01 FncErr=1.00D-07 GrdErr=1.00D-06
 Number of steps in this run=    186 maximum allowed number of steps=    186.
 Search for a saddle point of order  1.
 GradGradGradGradGradGradGradGradGradGradGradGradGradGradGradGradGradGrad

                          Input orientation:                          
 ---------------------------------------------------------------------
 Center     Atomic      Atomic             Coordinates (Angstroms)
 Number     Number       Type             X           Y           Z
 ---------------------------------------------------------------------
      1          6           0       -2.190188   -1.930363   -0.043221
      2          8           0       -2.149039   -1.270002    1.019251
      3          8           0       -3.350001   -2.612033   -0.306662
      4          8           0       -1.306410   -2.046395   -0.927371
      5          1           0       -3.924093   -2.418797    0.448903
      6          6           0        2.543294    1.224108    0.103343
      7          6           0        3.481745   -1.419874    0.240665
      8          6           0        4.332544   -0.388227    0.418751
      9          7           0        3.886877    0.894304    0.350129
     10          1           0        3.816977   -2.447073    0.291019
     11          1           0        5.389479   -0.521425    0.620502
     12          8           0        2.210023    2.397292    0.077217
     13          7           0        1.693066    0.173900   -0.091713
     14          6           0        2.093908   -1.101072   -0.025817
     15          7           0        1.211972   -2.068139   -0.208614
     16          1           0        0.174156   -1.935957   -0.450004
     17          1           0        1.538634   -3.022492   -0.157929
     18          1           0        4.504579    1.682454    0.489026
     19         16           0       -2.445814    1.290619   -0.341957
     20          6           0       -2.278089    2.970439   -0.997307
     21          1           0       -3.204617    3.528343   -0.847080
     22          1           0       -1.447608    3.493709   -0.514917
     23          1           0       -2.079863    2.890355   -2.067712
     24          6           0       -2.634058    1.671364    1.412868
     25          1           0       -1.760218    2.221923    1.772926
     26          1           0       -3.541049    2.257986    1.571068
     27          1           0       -2.705639    0.700833    1.905727
     28          6           0       -0.295409    0.698858   -0.262521
     29          1           0       -0.532506    0.024671    0.554229
     30          1           0       -0.301084    0.283164   -1.260188
     31          1           0        0.052799    1.711936   -0.098380
 ---------------------------------------------------------------------
                    Distance matrix (angstroms):
                    1          2          3          4          5
     1  C    0.000000
     2  O    1.251646   0.000000
     3  O    1.370854   2.236382   0.000000
     4  O    1.255487   2.258793   2.209409   0.000000
     5  H    1.867399   2.189941   0.968401   2.980785   0.000000
     6  C    5.690169   5.392352   7.043792   5.155461   7.430832
     7  C    5.701931   5.686333   6.956548   4.968226   7.475804
     8  C    6.718455   6.568793   8.030756   6.029873   8.502716
     9  N    6.712986   6.447032   8.068344   6.103273   8.485143
    10  H    6.038604   6.124473   7.193748   5.281488   7.742732
    11  H    7.738022   7.586081   9.033758   7.039629   9.506424
    12  O    6.172922   5.773898   7.493635   5.755072   7.807704
    13  N    4.417005   4.252160   5.765427   3.824250   6.210219
    14  C    4.363657   4.373020   5.656679   3.642609   6.178842
    15  N    3.408963   3.666206   4.595327   2.619033   5.189841
    16  H    2.399089   2.828328   3.591282   1.559536   4.223365
    17  H    3.887161   4.249224   4.908090   3.104687   5.529383
    18  H    7.625984   7.298546   8.987222   7.048268   9.373600
    19  S    3.244890   2.915089   4.006182   3.574439   4.070692
    20  C    4.993583   4.697286   5.726254   5.110545   5.817621
    21  H    5.610056   5.255621   6.165826   5.889596   6.129086
    22  H    5.494950   5.053575   6.398637   5.557230   6.482257
    23  H    5.229728   5.180994   5.915304   5.125437   6.158054
    24  C    3.910199   3.006961   4.670851   4.589237   4.395775
    25  H    4.552444   3.593431   5.497202   5.071103   5.288825
    26  H    4.687539   3.832609   5.222974   5.455594   4.824757
    27  H    3.314707   2.231554   4.035461   4.187069   3.652267
    28  C    3.248243   2.992540   4.504940   3.000094   4.836656
    29  H    2.631922   2.122640   3.953684   2.661462   4.181446
    30  H    3.154271   3.320106   4.311296   2.558963   4.831954
    31  H    4.277894   3.871582   5.506282   4.081633   5.760047
                    6          7          8          9         10
     6  C    0.000000
     7  C    2.808948   0.000000
     8  C    2.429099   1.349025   0.000000
     9  N    1.405308   2.351921   1.359490   0.000000
    10  H    3.890381   1.081690   2.126258   3.342631   0.000000
    11  H    3.378625   2.142647   1.084231   2.082115   2.507876
    12  O    1.219882   4.026754   3.518644   2.268324   5.108413
    13  N    1.365237   2.418670   2.746526   2.350960   3.395141
    14  C    2.371728   1.448702   2.391083   2.708800   2.209314
    15  N    3.564916   2.402908   3.599119   4.030308   2.679417
    16  H    3.988110   3.418115   4.521327   4.736548   3.752399
    17  H    4.371638   2.550087   3.883020   4.594960   2.392385
    18  H    2.050725   3.276021   2.079003   1.010954   4.191062
    19  S    5.009383   6.543866   7.024481   6.382713   7.320762
    20  C    5.244696   7.347320   7.548929   6.643247   8.255849
    21  H    6.265084   8.389009   8.587820   7.659031   9.289976
    22  H    4.632562   7.000909   7.025049   5.996828   7.978614
    23  H    5.372471   7.405279   7.619092   6.740338   8.296052
    24  C    5.359092   6.952184   7.332375   6.652506   7.735368
    25  H    4.722643   6.564197   6.765236   5.972990   7.422983
    26  H    6.343686   8.038424   8.385925   7.650125   8.827041
    27  H    5.574379   6.749337   7.275518   6.776325   7.420318
    28  C    2.909979   4.359944   4.802482   4.231437   5.207207
    29  H    3.332040   4.277762   4.884419   4.508754   5.009671
    30  H    3.291668   4.411654   4.973943   4.528314   5.178693
    31  H    2.545827   4.656271   4.795240   3.945863   5.622991
                   11         12         13         14         15
    11  H    0.000000
    12  O    4.350058   0.000000
    13  N    3.828080   2.288942   0.000000
    14  C    3.408006   3.501807   1.338122   0.000000
    15  N    4.531150   4.584526   2.296052   1.321531   0.000000
    16  H    5.508764   4.816613   2.624301   2.135981   1.073687
    17  H    4.657284   5.466271   3.200805   2.004405   1.009984
    18  H    2.378532   2.438353   3.243085   3.718120   5.039336
    19  S    8.099484   4.803879   4.294183   5.140934   4.967739
    20  C    8.579162   4.650403   4.940729   6.052714   6.179792
    21  H    9.613163   5.608202   5.984160   7.083807   7.157828
    22  H    8.009759   3.864067   4.589561   5.821818   6.172628
    23  H    8.640475   4.821509   5.051603   6.125454   6.235310
    24  C    8.355436   5.077012   4.819768   5.666558   5.604019
    25  H    7.744172   4.320763   4.426787   5.397412   5.582566
    26  H    9.401225   5.943553   5.874029   6.751744   6.668871
    27  H    8.287138   5.512273   4.859633   5.478446   5.242644
    28  C    5.881052   3.045864   2.063683   3.000769   3.151409
    29  H    5.947480   3.657641   2.322215   2.915785   2.829309
    30  H    6.047054   3.544552   2.313851   3.029153   2.987268
    31  H    5.829652   2.270278   2.248572   3.476263   3.955351
                   16         17         18         19         20
    16  H    0.000000
    17  H    1.768521   0.000000
    18  H    5.720773   5.599277   0.000000
    19  S    4.157729   5.874744   7.010851   0.000000
    20  C    5.512329   7.154520   7.062059   1.810914   0.000000
    21  H    6.436797   8.117068   8.038917   2.416266   1.091915
    22  H    5.667063   7.176765   6.302149   2.424858   1.093714
    23  H    5.566944   7.190449   7.165948   2.381450   1.091547
    24  C    4.936509   6.473874   7.198177   1.805495   2.761024
    25  H    5.096193   6.489570   6.417718   2.410415   2.915932
    26  H    5.956227   7.528350   8.138439   2.407281   2.949442
    27  H    4.560192   6.011296   7.413357   2.338256   3.709652
    28  C    2.682889   4.150072   4.957032   2.231756   3.103387
    29  H    2.313421   3.752598   5.303275   2.463031   3.759238
    30  H    2.409720   3.940419   5.302090   2.541256   3.346506
    31  H    3.666809   4.962465   4.490463   2.545566   2.797309
                   21         22         23         24         25
    21  H    0.000000
    22  H    1.788466   0.000000
    23  H    1.778213   1.781840   0.000000
    24  C    2.980147   2.906021   3.729277   0.000000
    25  H    3.264575   2.636170   3.911454   1.093779   0.000000
    26  H    2.752169   3.203255   3.971860   1.091689   1.792598
    27  H    3.977655   3.904141   4.579718   1.090855   1.795876
    28  C    4.100145   3.033555   3.353453   3.036771   2.934014
    29  H    4.623804   3.743623   4.181033   2.804528   2.796501
    30  H    4.374054   3.489634   3.257851   3.809868   3.884281
    31  H    3.804030   2.366313   3.132920   3.082972   2.654977
                   26         27         28         29         30
    26  H    0.000000
    27  H    1.798508   0.000000
    28  C    4.040682   3.241992   0.000000
    29  H    3.882395   2.646932   1.085276   0.000000
    30  H    4.734269   3.997418   1.080821   1.847291   0.000000
    31  H    4.000121   3.556368   1.083752   1.901406   1.875212
                   31
    31  H    0.000000
 Symmetry turned off by external request.
 Stoichiometry    C8H15N3O4S
 Framework group  C1[X(C8H15N3O4S)]
 Deg. of freedom    87
 Full point group                 C1      NOp   1
 Rotational constants (GHZ):      0.6061459      0.2892856      0.2110486
 Standard basis: 6-31G(d) (6D, 7F)
   274 basis functions,   532 primitive gaussians,   274 cartesian basis functions
    66 alpha electrons       66 beta electrons
       nuclear repulsion energy      1288.6676482323 Hartrees.
 NAtoms=   31 NActive=   31 NUniq=   31 SFac= 1.00D+00 NAtFMM=   60 NAOKFM=F Big=F
 Integral buffers will be    131072 words long.
 Raffenetti 2 integral format.
 Two-electron integral symmetry is turned off.
 R6APFD:  NTU= -4 IXU= 1 FactS= 1.050
 Nuclear repulsion after empirical dispersion term =     1288.6401525597 Hartrees.
 One-electron integrals computed using PRISM.
 NBasis=   274 RedAO= T EigKep=  1.12D-03  NBF=   274
 NBsUse=   274 1.00D-06 EigRej= -1.00D+00 NBFU=   274
 ExpMin= 1.17D-01 ExpMax= 2.19D+04 ExpMxC= 3.30D+03 IAcc=1 IRadAn=         1 AccDes= 0.00D+00
 Harris functional with IExCor= 3731 and IRadAn=       1 diagonalized for initial guess.
 HarFok:  IExCor= 3731 AccDes= 0.00D+00 IRadAn=         1 IDoV= 1 UseB2=F ITyADJ=14
 ICtDFT=  3500011 ScaDFX=  1.000000  1.000000  1.000000  1.000000
 FoFCou: FMM=F IPFlag=           0 FMFlag=      100000 FMFlg1=           0
         NFxFlg=           0 DoJE=T BraDBF=F KetDBF=T FulRan=T
         wScrn=  0.000000 ICntrl=     500 IOpCl=  0 I1Cent=   200000004 NGrid=           0
         NMat0=    1 NMatS0=      1 NMatT0=    0 NMatD0=    1 NMtDS0=    0 NMtDT0=    0
 Symmetry not used in FoFCou.
 Keep R1 ints in memory in canonical form, NReq=720369818.
 Requested convergence on RMS density matrix=1.00D-08 within 128 cycles.
 Requested convergence on MAX density matrix=1.00D-06.
 Requested convergence on             energy=1.00D-06.
 No special actions if energy rises.
 Integral accuracy reduced to 1.0D-05 until final iterations.
 Initial convergence to 1.0D-05 achieved.  Increase integral accuracy.
 SCF Done:  E(RAPFD) =  -1176.48647408     A.U. after   15 cycles
            NFock= 15  Conv=0.75D-08     -V/T= 2.0067
 DoSCS=F DFT=T ScalE2(SS,OS)=  1.000000  1.000000
 Range of M.O.s used for correlation:     1   274
 NBasis=   274 NAE=    66 NBE=    66 NFC=     0 NFV=     0
 NROrb=    274 NOA=    66 NOB=    66 NVA=   208 NVB=   208
 R6APFD:  NTU= -4 IXU= 1 FactS= 1.050
 Symmetrizing basis deriv contribution to polar:
 IMax=3 JMax=2 DiffMx= 0.00D+00
 G2DrvN: will do    32 centers at a time, making    1 passes.
 Calling FoFCou, ICntrl=  3107 FMM=F I1Cent=   0 AccDes= 0.00D+00.
 End of G2Drv F.D. properties file   721 does not exist.
 End of G2Drv F.D. properties file   722 does not exist.
 End of G2Drv F.D. properties file   788 does not exist.
          IDoAtm=1111111111111111111111111111111
          Differentiating once with respect to electric field.
                with respect to dipole field.
          Differentiating once with respect to nuclear coordinates.
 Keep R1 ints in memory in canonical form, NReq=720129497.
          There are    96 degrees of freedom in the 1st order CPHF.  IDoFFX=6 NUNeed=     3.
     93 vectors produced by pass  0 Test12= 1.43D-14 1.04D-09 XBig12= 1.79D+02 8.29D+00.
 AX will form    93 AO Fock derivatives at one time.
     93 vectors produced by pass  1 Test12= 1.43D-14 1.04D-09 XBig12= 2.75D+01 9.89D-01.
     93 vectors produced by pass  2 Test12= 1.43D-14 1.04D-09 XBig12= 2.16D-01 6.10D-02.
     93 vectors produced by pass  3 Test12= 1.43D-14 1.04D-09 XBig12= 8.41D-04 4.40D-03.
     93 vectors produced by pass  4 Test12= 1.43D-14 1.04D-09 XBig12= 1.59D-06 1.63D-04.
     77 vectors produced by pass  5 Test12= 1.43D-14 1.04D-09 XBig12= 1.69D-09 4.19D-06.
     17 vectors produced by pass  6 Test12= 1.43D-14 1.04D-09 XBig12= 1.63D-12 1.24D-07.
      3 vectors produced by pass  7 Test12= 1.43D-14 1.04D-09 XBig12= 1.65D-15 5.62D-09.
 InvSVY:  IOpt=1 It=  1 EMax= 2.13D-14
 Solved reduced A of dimension   562 with    96 vectors.
 Isotropic polarizability for W=    0.000000      149.49 Bohr**3.
 End of Minotr F.D. properties file   721 does not exist.
 End of Minotr F.D. properties file   722 does not exist.
 End of Minotr F.D. properties file   788 does not exist.

 **********************************************************************

            Population analysis using the SCF density.

 **********************************************************************

 Alpha  occ. eigenvalues --  -89.00186 -19.16221 -19.15732 -19.10100 -19.09868
 Alpha  occ. eigenvalues --  -14.43852 -14.38288 -14.37884 -10.34297 -10.31829
 Alpha  occ. eigenvalues --  -10.29769 -10.29631 -10.25377 -10.24907 -10.23784
 Alpha  occ. eigenvalues --  -10.23657  -8.01609  -5.96295  -5.95956  -5.95516
 Alpha  occ. eigenvalues --   -1.08013  -1.06734  -1.00239  -0.97460  -0.96163
 Alpha  occ. eigenvalues --   -0.93113  -0.89899  -0.84753  -0.81159  -0.73610
 Alpha  occ. eigenvalues --   -0.71858  -0.68380  -0.67791  -0.62559  -0.59313
 Alpha  occ. eigenvalues --   -0.58334  -0.55690  -0.54183  -0.49973  -0.48128
 Alpha  occ. eigenvalues --   -0.47649  -0.47117  -0.46593  -0.46255  -0.45675
 Alpha  occ. eigenvalues --   -0.44031  -0.43685  -0.43027  -0.42698  -0.42322
 Alpha  occ. eigenvalues --   -0.40383  -0.39992  -0.39583  -0.38402  -0.36937
 Alpha  occ. eigenvalues --   -0.36476  -0.34619  -0.32610  -0.28422  -0.26544
 Alpha  occ. eigenvalues --   -0.26294  -0.25364  -0.24956  -0.24623  -0.22946
 Alpha  occ. eigenvalues --   -0.20801
 Alpha virt. eigenvalues --   -0.03721   0.00717   0.01470   0.03880   0.06647
 Alpha virt. eigenvalues --    0.07995   0.09399   0.10534   0.12268   0.12898
 Alpha virt. eigenvalues --    0.12936   0.13551   0.13731   0.14612   0.15873
 Alpha virt. eigenvalues --    0.16429   0.16786   0.17916   0.19902   0.20780
 Alpha virt. eigenvalues --    0.22420   0.23467   0.23941   0.26619   0.29773
 Alpha virt. eigenvalues --    0.31353   0.33165   0.35046   0.35807   0.38496
 Alpha virt. eigenvalues --    0.39390   0.39937   0.41753   0.44428   0.45125
 Alpha virt. eigenvalues --    0.46247   0.47818   0.49896   0.50197   0.51983
 Alpha virt. eigenvalues --    0.52095   0.55075   0.55976   0.57714   0.58047
 Alpha virt. eigenvalues --    0.58623   0.59566   0.60576   0.62073   0.63281
 Alpha virt. eigenvalues --    0.64857   0.65823   0.66149   0.67134   0.67679
 Alpha virt. eigenvalues --    0.67909   0.69385   0.71114   0.75085   0.75860
 Alpha virt. eigenvalues --    0.77839   0.79843   0.80393   0.80657   0.82854
 Alpha virt. eigenvalues --    0.83680   0.84160   0.85484   0.85692   0.86106
 Alpha virt. eigenvalues --    0.86933   0.87187   0.87473   0.88370   0.88921
 Alpha virt. eigenvalues --    0.90088   0.90424   0.91280   0.91833   0.93784
 Alpha virt. eigenvalues --    0.94016   0.96539   0.96862   0.97751   0.99197
 Alpha virt. eigenvalues --    1.00711   1.01571   1.03495   1.04066   1.05248
 Alpha virt. eigenvalues --    1.05984   1.06835   1.08325   1.10565   1.11307
 Alpha virt. eigenvalues --    1.12149   1.15025   1.17868   1.20255   1.20952
 Alpha virt. eigenvalues --    1.23661   1.24099   1.27501   1.31361   1.32308
 Alpha virt. eigenvalues --    1.33590   1.34531   1.37421   1.38240   1.40034
 Alpha virt. eigenvalues --    1.41835   1.42195   1.42992   1.44464   1.45608
 Alpha virt. eigenvalues --    1.45817   1.48246   1.51393   1.54424   1.59539
 Alpha virt. eigenvalues --    1.63113   1.65159   1.66753   1.67742   1.68507
 Alpha virt. eigenvalues --    1.69679   1.71455   1.73112   1.74126   1.74533
 Alpha virt. eigenvalues --    1.77648   1.78456   1.79517   1.80756   1.81051
 Alpha virt. eigenvalues --    1.81424   1.83916   1.86416   1.87553   1.89852
 Alpha virt. eigenvalues --    1.90466   1.92256   1.93579   1.95103   1.97254
 Alpha virt. eigenvalues --    1.99549   2.00898   2.01893   2.03131   2.05312
 Alpha virt. eigenvalues --    2.11702   2.13377   2.18118   2.18854   2.19892
 Alpha virt. eigenvalues --    2.20818   2.21218   2.22012   2.23327   2.23755
 Alpha virt. eigenvalues --    2.24436   2.25536   2.27621   2.27878   2.30616
 Alpha virt. eigenvalues --    2.31559   2.32844   2.36600   2.43246   2.45603
 Alpha virt. eigenvalues --    2.47565   2.55364   2.57253   2.60946   2.63078
 Alpha virt. eigenvalues --    2.64134   2.65691   2.68384   2.73457   2.75564
 Alpha virt. eigenvalues --    2.77508   2.78986   2.81504   2.86379   2.93533
 Alpha virt. eigenvalues --    2.99469   3.03901   3.04505   3.09920   3.21893
 Alpha virt. eigenvalues --    3.25877   3.42663   3.88840   3.92119   3.96078
 Alpha virt. eigenvalues --    4.01265   4.03326   4.13032   4.16620   4.21649
 Alpha virt. eigenvalues --    4.24205   4.26322   4.29412   4.31597   4.33861
 Alpha virt. eigenvalues --    4.37849   4.54935   4.61319
          Condensed to atoms (all electrons):
               1          2          3          4          5          6
     1  C    4.138447   0.439094   0.292991   0.423286  -0.017108  -0.000001
     2  O    0.439094   8.303763  -0.103317  -0.087480   0.016785  -0.000003
     3  O    0.292991  -0.103317   8.276152  -0.082994   0.224460  -0.000000
     4  O    0.423286  -0.087480  -0.082994   8.300728   0.006090  -0.000008
     5  H   -0.017108   0.016785   0.224460   0.006090   0.370480   0.000000
     6  C   -0.000001  -0.000003  -0.000000  -0.000008   0.000000   4.111586
     7  C   -0.000002  -0.000000   0.000000  -0.000020   0.000000  -0.017382
     8  C   -0.000000   0.000000   0.000000   0.000000  -0.000000  -0.033081
     9  N   -0.000000   0.000000   0.000000   0.000000  -0.000000   0.256593
    10  H    0.000000  -0.000000  -0.000000  -0.000000   0.000000   0.000702
    11  H   -0.000000   0.000000  -0.000000  -0.000000   0.000000   0.001890
    12  O   -0.000000  -0.000000  -0.000000  -0.000000   0.000000   0.599495
    13  N   -0.000128   0.000003  -0.000000  -0.000065  -0.000000   0.327651
    14  C   -0.000142   0.000034  -0.000001   0.000472   0.000000  -0.025498
    15  N    0.007404  -0.000160  -0.000072  -0.071784   0.000017   0.001686
    16  H   -0.010996  -0.000207   0.001189   0.132852  -0.000155  -0.000226
    17  H   -0.000107  -0.000016   0.000004   0.001431  -0.000001  -0.000077
    18  H    0.000000  -0.000000  -0.000000   0.000000   0.000000  -0.008572
    19  S   -0.000711   0.027261  -0.000388   0.000218   0.000198   0.000075
    20  C    0.000069   0.000286   0.000000  -0.000016  -0.000000  -0.000018
    21  H   -0.000000  -0.000000   0.000000  -0.000000  -0.000000   0.000000
    22  H    0.000000   0.000001  -0.000000  -0.000000   0.000000  -0.000016
    23  H    0.000000   0.000002   0.000000   0.000000  -0.000000   0.000001
    24  C    0.000423  -0.018649   0.000012  -0.000014  -0.000059   0.000002
    25  H    0.000011   0.000081  -0.000001   0.000001   0.000001  -0.000002
    26  H   -0.000015   0.000284   0.000001  -0.000001  -0.000001   0.000000
    27  H   -0.000371   0.022978  -0.000011   0.000180   0.000177   0.000000
    28  C   -0.003407  -0.026884  -0.000153   0.002235   0.000022  -0.012579
    29  H    0.001100   0.046181   0.000467  -0.006773  -0.000045   0.000609
    30  H   -0.000531  -0.000390   0.000004   0.006914  -0.000003   0.000426
    31  H    0.000292   0.000309   0.000001   0.000425  -0.000001   0.000292
               7          8          9         10         11         12
     1  C   -0.000002  -0.000000  -0.000000   0.000000  -0.000000  -0.000000
     2  O   -0.000000   0.000000   0.000000  -0.000000   0.000000  -0.000000
     3  O    0.000000   0.000000   0.000000  -0.000000  -0.000000  -0.000000
     4  O   -0.000020   0.000000   0.000000  -0.000000  -0.000000  -0.000000
     5  H    0.000000  -0.000000  -0.000000   0.000000   0.000000   0.000000
     6  C   -0.017382  -0.033081   0.256593   0.000702   0.001890   0.599495
     7  C    5.086767   0.596429  -0.034218   0.361958  -0.030828   0.000704
     8  C    0.596429   4.745119   0.311807  -0.035528   0.371929   0.002279
     9  N   -0.034218   0.311807   7.115971   0.003312  -0.043354  -0.097418
    10  H    0.361958  -0.035528   0.003312   0.505845  -0.003367   0.000005
    11  H   -0.030828   0.371929  -0.043354  -0.003367   0.495937  -0.000106
    12  O    0.000704   0.002279  -0.097418   0.000005  -0.000106   8.104772
    13  N   -0.049401  -0.019828  -0.105927   0.003884  -0.000362  -0.088307
    14  C    0.450699  -0.031289  -0.017958  -0.025829   0.003035   0.000464
    15  N   -0.079873   0.004579   0.000195  -0.003866  -0.000132  -0.000057
    16  H    0.002509  -0.000017   0.000007  -0.000082   0.000001  -0.000010
    17  H   -0.002947   0.000334   0.000023   0.003449  -0.000006   0.000001
    18  H    0.003502  -0.024931   0.295508  -0.000088  -0.005133   0.008929
    19  S    0.000016   0.000001   0.000013  -0.000000   0.000000   0.000038
    20  C    0.000000  -0.000000  -0.000000   0.000000  -0.000000  -0.000045
    21  H    0.000000   0.000000   0.000000  -0.000000   0.000000  -0.000000
    22  H   -0.000000  -0.000000  -0.000000   0.000000  -0.000000   0.000067
    23  H   -0.000000  -0.000000  -0.000000   0.000000  -0.000000   0.000001
    24  C   -0.000000  -0.000000  -0.000000   0.000000   0.000000   0.000003
    25  H   -0.000000  -0.000000  -0.000000   0.000000  -0.000000  -0.000014
    26  H    0.000000   0.000000   0.000000  -0.000000   0.000000   0.000000
    27  H   -0.000000  -0.000000  -0.000000   0.000000  -0.000000   0.000000
    28  C    0.001041   0.000040   0.000244  -0.000014   0.000001  -0.013682
    29  H   -0.000173  -0.000013  -0.000013   0.000004   0.000000   0.000191
    30  H   -0.000094  -0.000010  -0.000035   0.000003  -0.000000   0.000141
    31  H   -0.000102  -0.000053   0.000470   0.000001   0.000000   0.027134
              13         14         15         16         17         18
     1  C   -0.000128  -0.000142   0.007404  -0.010996  -0.000107   0.000000
     2  O    0.000003   0.000034  -0.000160  -0.000207  -0.000016  -0.000000
     3  O   -0.000000  -0.000001  -0.000072   0.001189   0.000004  -0.000000
     4  O   -0.000065   0.000472  -0.071784   0.132852   0.001431   0.000000
     5  H   -0.000000   0.000000   0.000017  -0.000155  -0.000001   0.000000
     6  C    0.327651  -0.025498   0.001686  -0.000226  -0.000077  -0.008572
     7  C   -0.049401   0.450699  -0.079873   0.002509  -0.002947   0.003502
     8  C   -0.019828  -0.031289   0.004579  -0.000017   0.000334  -0.024931
     9  N   -0.105927  -0.017958   0.000195   0.000007   0.000023   0.295508
    10  H    0.003884  -0.025829  -0.003866  -0.000082   0.003449  -0.000088
    11  H   -0.000362   0.003035  -0.000132   0.000001  -0.000006  -0.005133
    12  O   -0.088307   0.000464  -0.000057  -0.000010   0.000001   0.008929
    13  N    7.277331   0.410295  -0.080903   0.000298   0.003886   0.005856
    14  C    0.410295   4.268320   0.375958  -0.004689  -0.034201   0.000351
    15  N   -0.080903   0.375958   7.241263   0.132715   0.319443   0.000017
    16  H    0.000298  -0.004689   0.132715   0.282936  -0.007149  -0.000000
    17  H    0.003886  -0.034201   0.319443  -0.007149   0.358843  -0.000001
    18  H    0.005856   0.000351   0.000017  -0.000000  -0.000001   0.350204
    19  S    0.012254   0.000043  -0.000151   0.000356   0.000002  -0.000001
    20  C   -0.000068  -0.000001  -0.000000   0.000001   0.000000   0.000000
    21  H    0.000001   0.000000  -0.000000   0.000000  -0.000000  -0.000000
    22  H   -0.000109   0.000000   0.000000  -0.000000   0.000000   0.000000
    23  H   -0.000010  -0.000000   0.000000  -0.000000   0.000000   0.000000
    24  C   -0.000103   0.000000   0.000001  -0.000006  -0.000000   0.000000
    25  H   -0.000174  -0.000001   0.000000  -0.000002  -0.000000   0.000000
    26  H    0.000002   0.000000  -0.000000   0.000000   0.000000  -0.000000
    27  H   -0.000008  -0.000002  -0.000002   0.000009   0.000000   0.000000
    28  C    0.031626  -0.007325  -0.001074   0.000022   0.000055  -0.000007
    29  H   -0.020257  -0.000350   0.001761   0.000373   0.000025   0.000001
    30  H   -0.022198  -0.001191   0.001827  -0.000452   0.000004   0.000002
    31  H   -0.033118   0.001643   0.000178   0.000143   0.000001  -0.000004
              19         20         21         22         23         24
     1  C   -0.000711   0.000069  -0.000000   0.000000   0.000000   0.000423
     2  O    0.027261   0.000286  -0.000000   0.000001   0.000002  -0.018649
     3  O   -0.000388   0.000000   0.000000  -0.000000   0.000000   0.000012
     4  O    0.000218  -0.000016  -0.000000  -0.000000   0.000000  -0.000014
     5  H    0.000198  -0.000000  -0.000000   0.000000  -0.000000  -0.000059
     6  C    0.000075  -0.000018   0.000000  -0.000016   0.000001   0.000002
     7  C    0.000016   0.000000   0.000000  -0.000000  -0.000000  -0.000000
     8  C    0.000001  -0.000000   0.000000  -0.000000  -0.000000  -0.000000
     9  N    0.000013  -0.000000   0.000000  -0.000000  -0.000000  -0.000000
    10  H   -0.000000   0.000000  -0.000000   0.000000   0.000000   0.000000
    11  H    0.000000  -0.000000   0.000000  -0.000000  -0.000000   0.000000
    12  O    0.000038  -0.000045  -0.000000   0.000067   0.000001   0.000003
    13  N    0.012254  -0.000068   0.000001  -0.000109  -0.000010  -0.000103
    14  C    0.000043  -0.000001   0.000000   0.000000  -0.000000   0.000000
    15  N   -0.000151  -0.000000  -0.000000   0.000000   0.000000   0.000001
    16  H    0.000356   0.000001   0.000000  -0.000000  -0.000000  -0.000006
    17  H    0.000002   0.000000  -0.000000   0.000000   0.000000  -0.000000
    18  H   -0.000001   0.000000  -0.000000   0.000000   0.000000   0.000000
    19  S   15.446930   0.212799  -0.032374  -0.041276  -0.035531   0.238238
    20  C    0.212799   5.424252   0.366195   0.364084   0.373935  -0.036112
    21  H   -0.032374   0.366195   0.498216  -0.028777  -0.021396  -0.002985
    22  H   -0.041276   0.364084  -0.028777   0.500802  -0.021196  -0.003949
    23  H   -0.035531   0.373935  -0.021396  -0.021196   0.474225   0.003049
    24  C    0.238238  -0.036112  -0.002985  -0.003949   0.003049   5.439345
    25  H   -0.047766  -0.003848  -0.000829   0.006337   0.000002   0.362713
    26  H   -0.034611  -0.002581   0.003810  -0.000776  -0.000026   0.362897
    27  H   -0.032943   0.002946  -0.000018  -0.000008  -0.000058   0.351841
    28  C    0.080860  -0.015424   0.000972  -0.002790   0.000021  -0.015644
    29  H   -0.044872   0.001232  -0.000053   0.000249   0.000013   0.000990
    30  H   -0.036656   0.000536  -0.000055   0.000179   0.000443   0.001323
    31  H   -0.042732  -0.000363  -0.000140   0.006555   0.000007  -0.000179
              25         26         27         28         29         30
     1  C    0.000011  -0.000015  -0.000371  -0.003407   0.001100  -0.000531
     2  O    0.000081   0.000284   0.022978  -0.026884   0.046181  -0.000390
     3  O   -0.000001   0.000001  -0.000011  -0.000153   0.000467   0.000004
     4  O    0.000001  -0.000001   0.000180   0.002235  -0.006773   0.006914
     5  H    0.000001  -0.000001   0.000177   0.000022  -0.000045  -0.000003
     6  C   -0.000002   0.000000   0.000000  -0.012579   0.000609   0.000426
     7  C   -0.000000   0.000000  -0.000000   0.001041  -0.000173  -0.000094
     8  C   -0.000000   0.000000  -0.000000   0.000040  -0.000013  -0.000010
     9  N   -0.000000   0.000000  -0.000000   0.000244  -0.000013  -0.000035
    10  H    0.000000  -0.000000   0.000000  -0.000014   0.000004   0.000003
    11  H   -0.000000   0.000000  -0.000000   0.000001   0.000000  -0.000000
    12  O   -0.000014   0.000000   0.000000  -0.013682   0.000191   0.000141
    13  N   -0.000174   0.000002  -0.000008   0.031626  -0.020257  -0.022198
    14  C   -0.000001   0.000000  -0.000002  -0.007325  -0.000350  -0.001191
    15  N    0.000000  -0.000000  -0.000002  -0.001074   0.001761   0.001827
    16  H   -0.000002   0.000000   0.000009   0.000022   0.000373  -0.000452
    17  H   -0.000000   0.000000   0.000000   0.000055   0.000025   0.000004
    18  H    0.000000  -0.000000   0.000000  -0.000007   0.000001   0.000002
    19  S   -0.047766  -0.034611  -0.032943   0.080860  -0.044872  -0.036656
    20  C   -0.003848  -0.002581   0.002946  -0.015424   0.001232   0.000536
    21  H   -0.000829   0.003810  -0.000018   0.000972  -0.000053  -0.000055
    22  H    0.006337  -0.000776  -0.000008  -0.002790   0.000249   0.000179
    23  H    0.000002  -0.000026  -0.000058   0.000021   0.000013   0.000443
    24  C    0.362713   0.362897   0.351841  -0.015644   0.000990   0.001323
    25  H    0.519200  -0.029862  -0.015828  -0.001173   0.000425   0.000165
    26  H   -0.029862   0.508594  -0.015578   0.000932   0.000037  -0.000041
    27  H   -0.015828  -0.015578   0.402796  -0.000544   0.000388   0.000014
    28  C   -0.001173   0.000932  -0.000544   5.428177   0.339164   0.379593
    29  H    0.000425   0.000037   0.000388   0.339164   0.424221  -0.015130
    30  H    0.000165  -0.000041   0.000014   0.379593  -0.015130   0.442078
    31  H    0.003443  -0.000119   0.000011   0.341074  -0.011175  -0.015429
              31
     1  C    0.000292
     2  O    0.000309
     3  O    0.000001
     4  O    0.000425
     5  H   -0.000001
     6  C    0.000292
     7  C   -0.000102
     8  C   -0.000053
     9  N    0.000470
    10  H    0.000001
    11  H    0.000000
    12  O    0.027134
    13  N   -0.033118
    14  C    0.001643
    15  N    0.000178
    16  H    0.000143
    17  H    0.000001
    18  H   -0.000004
    19  S   -0.042732
    20  C   -0.000363
    21  H   -0.000140
    22  H    0.006555
    23  H    0.000007
    24  C   -0.000179
    25  H    0.003443
    26  H   -0.000119
    27  H    0.000011
    28  C    0.341074
    29  H   -0.011175
    30  H   -0.015429
    31  H    0.482523
 Mulliken charges:
               1
     1  C    0.730402
     2  O   -0.619956
     3  O   -0.608344
     4  O   -0.625677
     5  H    0.399143
     6  C    0.796456
     7  C   -0.288587
     8  C    0.112232
     9  N   -0.685220
    10  H    0.189611
    11  H    0.210494
    12  O   -0.544587
    13  N   -0.652121
    14  C    0.637161
    15  N   -0.848969
    16  H    0.470580
    17  H    0.357004
    18  H    0.374366
    19  S    0.330712
    20  C   -0.687859
    21  H    0.217433
    22  H    0.220626
    23  H    0.226518
    24  C   -0.683136
    25  H    0.207122
    26  H    0.207054
    27  H    0.284031
    28  C   -0.505381
    29  H    0.281421
    30  H    0.258564
    31  H    0.238910
 Sum of Mulliken charges =  -0.00000
 Mulliken charges with hydrogens summed into heavy atoms:
               1
     1  C    0.730402
     2  O   -0.619956
     3  O   -0.209202
     4  O   -0.625677
     6  C    0.796456
     7  C   -0.098977
     8  C    0.322725
     9  N   -0.310854
    12  O   -0.544587
    13  N   -0.652121
    14  C    0.637161
    15  N   -0.021386
    19  S    0.330712
    20  C   -0.023282
    24  C    0.015071
    28  C    0.273513
 APT charges:
               1
     1  C    1.499900
     2  O   -0.955378
     3  O   -0.773044
     4  O   -1.018785
     5  H    0.269588
     6  C    1.183026
     7  C   -0.457858
     8  C    0.462375
     9  N   -0.707646
    10  H    0.040131
    11  H    0.053885
    12  O   -0.827740
    13  N   -1.171646
    14  C    1.040448
    15  N   -0.916087
    16  H    0.650669
    17  H    0.222373
    18  H    0.232910
    19  S   -0.171318
    20  C   -0.029990
    21  H    0.008647
    22  H    0.011500
    23  H    0.039760
    24  C   -0.030184
    25  H    0.006235
    26  H    0.008863
    27  H    0.120041
    28  C    1.133569
    29  H    0.062249
    30  H    0.007298
    31  H    0.006209
 Sum of APT charges =   0.00000
 APT charges with hydrogens summed into heavy atoms:
               1
     1  C    1.499900
     2  O   -0.955378
     3  O   -0.503456
     4  O   -1.018785
     6  C    1.183026
     7  C   -0.417727
     8  C    0.516260
     9  N   -0.474735
    12  O   -0.827740
    13  N   -1.171646
    14  C    1.040448
    15  N   -0.043045
    19  S   -0.171318
    20  C    0.029917
    24  C    0.104955
    28  C    1.209326
 Electronic spatial extent (au):  <R**2>=           5023.6436
 Charge=             -0.0000 electrons
 Dipole moment (field-independent basis, Debye):
    X=              5.5206    Y=              3.5534    Z=              1.7185  Tot=              6.7865
 Quadrupole moment (field-independent basis, Debye-Ang):
   XX=            -69.9812   YY=            -99.3090   ZZ=           -103.3298
   XY=            -23.1996   XZ=             -0.8969   YZ=             -4.9414
 Traceless Quadrupole moment (field-independent basis, Debye-Ang):
   XX=             20.8921   YY=             -8.4356   ZZ=            -12.4565
   XY=            -23.1996   XZ=             -0.8969   YZ=             -4.9414
 Octapole moment (field-independent basis, Debye-Ang**2):
  XXX=            121.9991  YYY=            -23.1662  ZZZ=             -6.7199  XYY=              4.1644
  XXY=             21.1109  XXZ=             41.2530  XZZ=             -5.8723  YZZ=             11.4727
  YYZ=             11.0262  XYZ=             16.4358
 Hexadecapole moment (field-independent basis, Debye-Ang**3):
 XXXX=          -3166.8035 YYYY=          -1862.4516 ZZZZ=           -344.3716 XXXY=             65.6889
 XXXZ=            -48.7848 YYYX=           -157.3780 YYYZ=            -50.7177 ZZZX=            -71.0828
 ZZZY=             -9.2100 XXYY=           -907.2742 XXZZ=           -759.7995 YYZZ=           -382.7324
 XXYZ=            -35.4003 YYXZ=            -50.2627 ZZXY=             -0.2973
 N-N= 1.288640152560D+03 E-N=-5.344085420556D+03  KE= 1.168680028303D+03
  Exact polarizability: 200.492  -9.570 159.587   5.453   1.262  88.380
 Approx polarizability: 260.825   1.788 246.666   8.149   7.602 140.147
 R6APFD:  NTU= -4 IXU= 1 FactS= 1.050
 Calling FoFJK, ICntrl=    100127 FMM=F ISym2X=0 I1Cent= 0 IOpClX= 0 NMat=1 NMatS=1 NMatT=0.
 -------------------------------------------------------------------
 Center     Atomic                   Forces (Hartrees/Bohr)
 Number     Number              X              Y              Z
 -------------------------------------------------------------------
      1        6          -0.000122398   -0.000591561   -0.000476648
      2        8           0.001270242    0.003627491    0.005953382
      3        8          -0.004288926   -0.003237039   -0.001960465
      4        8           0.003629235   -0.001635585   -0.003643206
      5        1           0.000505143    0.000432247    0.000079900
      6        6           0.000017593   -0.004776964   -0.000145898
      7        6          -0.005002999   -0.000463332   -0.000935517
      8        6           0.001539183    0.003749392    0.000367107
      9        7           0.001987801   -0.002170762    0.000281690
     10        1           0.000663389   -0.001108094    0.000090541
     11        1           0.000874351    0.000005778    0.000171500
     12        8          -0.002174638    0.007395375   -0.000118638
     13        7           0.001646431   -0.000162502    0.000586232
     14        6           0.002665953   -0.001368687    0.000505547
     15        7          -0.000617921   -0.001596016   -0.000303343
     16        1           0.000157647   -0.000848413   -0.000002767
     17        1          -0.000679142    0.000710431   -0.000145075
     18        1          -0.000039741   -0.000570349   -0.000015643
     19       16          -0.001077700    0.000087811    0.001083485
     20        6           0.000117977   -0.001205357    0.000003844
     21        1          -0.000905972    0.001171741   -0.000151877
     22        1           0.000564668    0.001174548   -0.000095006
     23        1           0.000230158    0.000024691   -0.000831509
     24        6           0.000037804   -0.000495930   -0.001060710
     25        1           0.000483551    0.000269474    0.000941242
     26        1          -0.000957952    0.000616127    0.000671198
     27        1          -0.000014742   -0.000363810    0.000062080
     28        6          -0.001142381    0.001456876   -0.001140080
     29        1          -0.000386106    0.000017350   -0.000029322
     30        1           0.000312113    0.000294139    0.000428404
     31        1           0.000707381   -0.000439067   -0.000170449
 -------------------------------------------------------------------
 Cartesian Forces:  Max     0.007395375 RMS     0.001752278
 FormGI is forming the generalized inverse of G from B-inverse, IUseBI=4.

 GradGradGradGradGradGradGradGradGradGradGradGradGradGradGradGradGradGrad
 Berny optimization.
 Internal  Forces:  Max     0.007708448 RMS     0.001172573
 Search for a saddle point.
 Step number   1 out of a maximum of  186
 All quantities printed in internal units (Hartrees-Bohrs-Radians)
 Swapping is turned off.
 Second derivative matrix not updated -- analytic derivatives used.
 ITU=  0
     Eigenvalues ---   -0.02467   0.00054   0.00084   0.00133   0.00173
     Eigenvalues ---    0.00238   0.00312   0.00378   0.00486   0.00582
     Eigenvalues ---    0.00636   0.00754   0.00861   0.00990   0.01230
     Eigenvalues ---    0.01436   0.01600   0.01671   0.01849   0.01926
     Eigenvalues ---    0.02234   0.02498   0.02901   0.02915   0.03101
     Eigenvalues ---    0.03650   0.03876   0.04022   0.04319   0.04381
     Eigenvalues ---    0.04590   0.04958   0.05169   0.05604   0.05799
     Eigenvalues ---    0.06063   0.06928   0.07099   0.07757   0.08176
     Eigenvalues ---    0.08425   0.09380   0.10144   0.10308   0.10425
     Eigenvalues ---    0.10852   0.11173   0.11764   0.12615   0.13683
     Eigenvalues ---    0.15804   0.16868   0.18105   0.19570   0.19828
     Eigenvalues ---    0.20616   0.20949   0.22257   0.24218   0.29286
     Eigenvalues ---    0.30198   0.31916   0.32149   0.33266   0.34513
     Eigenvalues ---    0.35099   0.35236   0.35587   0.35905   0.36289
     Eigenvalues ---    0.37165   0.37299   0.37821   0.38073   0.38657
     Eigenvalues ---    0.40070   0.44559   0.47475   0.47683   0.50515
     Eigenvalues ---    0.52145   0.58271   0.59951   0.63543   0.77083
     Eigenvalues ---    0.863431000.000001000.000001000.000001000.00000
     Eigenvalues --- 1000.000001000.000001000.000001000.000001000.00000
     Eigenvalues --- 1000.000001000.000001000.000001000.000001000.00000
     Eigenvalues --- 1000.000001000.000001000.000001000.000001000.00000
     Eigenvalues --- 1000.000001000.000001000.000001000.000001000.00000
     Eigenvalues --- 1000.000001000.000001000.000001000.000001000.00000
     Eigenvalues --- 1000.000001000.000001000.000001000.000001000.00000
     Eigenvalues --- 1000.000001000.000001000.000001000.000001000.00000
     Eigenvalues --- 1000.000001000.000001000.000001000.000001000.00000
     Eigenvalues --- 1000.000001000.000001000.000001000.000001000.00000
     Eigenvalues --- 1000.000001000.000001000.000001000.000001000.00000
     Eigenvalues --- 1000.000001000.000001000.000001000.000001000.00000
     Eigenvalues --- 1000.000001000.000001000.000001000.000001000.00000
     Eigenvalues --- 1000.000001000.000001000.000001000.000001000.00000
     Eigenvalues --- 1000.000001000.000001000.000001000.000001000.00000
     Eigenvalues --- 1000.000001000.000001000.000001000.000001000.00000
     Eigenvalues --- 1000.000001000.000001000.000001000.000001000.00000
     Eigenvalues --- 1000.000001000.000001000.000001000.000001000.00000
     Eigenvalues --- 1000.000001000.000001000.00000
 Eigenvectors required to have negative eigenvalues:
                          R18       R24       D81       D77       D80
   1                    0.57250  -0.54231   0.21841   0.21636  -0.21442
                          D76       R7        A53       A50       A48
   1                   -0.20433   0.15537   0.14303  -0.12378  -0.12142
 RFO step:  Lambda0=1.924589329D-05 Lambda=-8.71313829D-04.
 Linear search not attempted -- option 19 set.
 Iteration  1 RMS(Cart)=  0.03688493 RMS(Int)=  0.00044606
 Iteration  2 RMS(Cart)=  0.00075131 RMS(Int)=  0.00013789
 Iteration  3 RMS(Cart)=  0.00000063 RMS(Int)=  0.00013789
 Iteration  1 RMS(Cart)=  0.00000808 RMS(Int)=  0.00000282
 Iteration  2 RMS(Cart)=  0.00000564 RMS(Int)=  0.00000311
 Iteration  3 RMS(Cart)=  0.00000395 RMS(Int)=  0.00000358
 Iteration  4 RMS(Cart)=  0.00000276 RMS(Int)=  0.00000400
 Iteration  5 RMS(Cart)=  0.00000193 RMS(Int)=  0.00000433
 Iteration  6 RMS(Cart)=  0.00000135 RMS(Int)=  0.00000456
 Iteration  7 RMS(Cart)=  0.00000094 RMS(Int)=  0.00000474
 Variable       Old X    -DE/DX   Delta X   Delta X   Delta X     New X
                                 (Linear)    (Quad)   (Total)
   X16        0.32911  -0.00000   0.00000   0.00000   0.00000   0.32911
   Y16       -3.65843  -0.00001   0.00000   0.00000   0.00000  -3.65843
   Z16       -0.85038   0.00002   0.00000   0.00000   0.00000  -0.85038
    R1        2.36527   0.00770   0.00000   0.00820   0.00823   2.37350
    R2        2.59054   0.00496   0.00000   0.01161   0.01161   2.60215
    R3        2.37253   0.00474   0.00000   0.00525   0.00531   2.37784
    R4        4.21703   0.00046   0.00000   0.00858   0.00842   4.22545
    R5        4.01121   0.00075   0.00000  -0.06299  -0.06318   3.94803
    R6        1.83001  -0.00015   0.00000   0.00016   0.00016   1.83017
    R7        2.94710  -0.00057   0.00000  -0.02342  -0.02342   2.92368
    R8        2.65565   0.00211   0.00000   0.00605   0.00606   2.66170
    R9        2.30524   0.00771   0.00000   0.00919   0.00919   2.31444
   R10        2.57992   0.00095   0.00000  -0.00109  -0.00110   2.57883
   R11        2.54929   0.00330   0.00000   0.00651   0.00652   2.55581
   R12        2.04410   0.00126   0.00000   0.00343   0.00343   2.04753
   R13        2.73765  -0.00196   0.00000  -0.00725  -0.00725   2.73040
   R14        2.56906  -0.00152   0.00000  -0.00473  -0.00472   2.56435
   R15        2.04890   0.00088   0.00000   0.00224   0.00224   2.05114
   R16        1.91043  -0.00047   0.00000  -0.00088  -0.00088   1.90955
   R17        2.52868   0.00239   0.00000   0.00581   0.00587   2.53455
   R18        3.89980   0.00191   0.00000   0.01608   0.01608   3.91588
   R19        2.49733   0.00164   0.00000   0.00071   0.00077   2.49810
   R20        2.02897  -0.00080   0.00000   0.00319   0.00319   2.03216
   R21        1.90859  -0.00090   0.00000  -0.00159  -0.00159   1.90701
   R22        3.42213   0.00105   0.00000   0.00137   0.00136   3.42349
   R23        3.41189   0.00039   0.00000  -0.00045  -0.00040   3.41149
   R24        4.21741   0.00092   0.00000   0.03279   0.03299   4.25039
   R25        2.06342   0.00135   0.00000   0.00396   0.00396   2.06738
   R26        2.06682   0.00103   0.00000   0.00259   0.00259   2.06941
   R27        2.06272   0.00086   0.00000   0.00262   0.00262   2.06535
   R28        4.47168   0.00055   0.00000   0.07858   0.07862   4.55031
   R29        2.06694   0.00083   0.00000   0.00245   0.00245   2.06939
   R30        2.06299   0.00122   0.00000   0.00355   0.00355   2.06655
   R31        2.06142   0.00056   0.00000   0.00225   0.00217   2.06359
   R32        2.05087   0.00094   0.00000   0.00116   0.00106   2.05193
   R33        2.04245  -0.00051   0.00000  -0.00037  -0.00037   2.04209
   R34        2.04799   0.00008   0.00000  -0.00061  -0.00059   2.04741
    A1        2.04125   0.00094   0.00000   0.00066   0.00085   2.04210
    A2        2.24389  -0.00028   0.00000   0.00180   0.00141   2.24530
    A3        1.99794  -0.00066   0.00000  -0.00244  -0.00224   1.99570
    A4        2.48974   0.00114   0.00000  -0.01742  -0.01767   2.47207
    A5        1.73237   0.00054   0.00000   0.01864   0.01893   1.75130
    A6        1.30602  -0.00049   0.00000   0.00488   0.00505   1.31107
    A7        1.82596  -0.00117   0.00000  -0.00860  -0.00860   1.81735
    A8        2.03329  -0.00108   0.00000  -0.00142  -0.00161   2.03168
    A9        2.08364   0.00051   0.00000   0.00005   0.00005   2.08370
   A10        2.02637  -0.00088   0.00000  -0.00251  -0.00252   2.02384
   A11        2.17317   0.00037   0.00000   0.00247   0.00247   2.17564
   A12        2.12305  -0.00054   0.00000  -0.00508  -0.00508   2.11797
   A13        2.04899   0.00048   0.00000   0.00286   0.00285   2.05184
   A14        2.11114   0.00005   0.00000   0.00223   0.00223   2.11337
   A15        2.10370  -0.00017   0.00000  -0.00138  -0.00137   2.10233
   A16        2.14768   0.00020   0.00000   0.00044   0.00043   2.14811
   A17        2.03181  -0.00003   0.00000   0.00094   0.00094   2.03275
   A18        2.14562   0.00048   0.00000   0.00103   0.00104   2.14666
   A19        2.01013   0.00007   0.00000   0.00111   0.00110   2.01123
   A20        2.12732  -0.00055   0.00000  -0.00216  -0.00217   2.12516
   A21        2.14047   0.00057   0.00000   0.00247   0.00247   2.14294
   A22        2.00008  -0.00118   0.00000  -0.01621  -0.01611   1.98397
   A23        2.13541   0.00059   0.00000   0.01408   0.01397   2.14938
   A24        2.10099  -0.00048   0.00000  -0.00248  -0.00249   2.09850
   A25        2.09871  -0.00045   0.00000   0.00033   0.00035   2.09906
   A26        2.08348   0.00093   0.00000   0.00215   0.00214   2.08562
   A27        2.19700   0.00016   0.00000   0.00810   0.00799   2.20499
   A28        2.05860   0.00037   0.00000  -0.00065  -0.00066   2.05793
   A29        2.02666  -0.00054   0.00000  -0.00671  -0.00673   2.01993
   A30        1.73734   0.00095   0.00000   0.01580   0.01577   1.75311
   A31        1.74122  -0.00032   0.00000   0.00503   0.00493   1.74615
   A32        1.69288  -0.00001   0.00000   0.00349   0.00363   1.69651
   A33        1.92365   0.00060   0.00000   0.00715   0.00710   1.93074
   A34        1.93319   0.00009   0.00000   0.00751   0.00752   1.94071
   A35        1.87931  -0.00002   0.00000  -0.00535  -0.00531   1.87401
   A36        1.91684  -0.00032   0.00000  -0.00257  -0.00257   1.91427
   A37        1.90339  -0.00019   0.00000  -0.00308  -0.00307   1.90032
   A38        1.90681  -0.00017   0.00000  -0.00395  -0.00401   1.90280
   A39        1.77098  -0.00010   0.00000  -0.00783  -0.00785   1.76314
   A40        1.92069   0.00069   0.00000   0.00908   0.00908   1.92978
   A41        1.91855   0.00036   0.00000   0.00703   0.00706   1.92561
   A42        1.83211  -0.00003   0.00000  -0.00677  -0.00697   1.82514
   A43        1.92364  -0.00026   0.00000  -0.00085  -0.00093   1.92271
   A44        1.93000  -0.00080   0.00000  -0.00620  -0.00618   1.92382
   A45        1.93702   0.00008   0.00000  -0.00224  -0.00211   1.93491
   A46        2.20174   0.00109   0.00000   0.02883   0.02818   2.22991
   A47        3.09320  -0.00071   0.00000   0.00000   0.00000   3.09320
   A48        1.56099  -0.00066   0.00000   0.00307   0.00280   1.56379
   A49        1.55442   0.00005   0.00000   0.00065   0.00062   1.55504
   A50        1.48636   0.00022   0.00000  -0.00224  -0.00203   1.48434
   A51        1.55180  -0.00029   0.00000  -0.00515  -0.00503   1.54677
   A52        1.63491   0.00054   0.00000  -0.00109  -0.00119   1.63371
   A53        1.63796   0.00015   0.00000   0.00491   0.00497   1.64293
   A54        2.04272  -0.00010   0.00000  -0.00140  -0.00154   2.04118
   A55        2.13757   0.00031   0.00000   0.00563   0.00573   2.14330
   A56        2.09557  -0.00026   0.00000  -0.00406  -0.00403   2.09155
   A57        2.36051   0.00115   0.00000   0.03962   0.03916   2.39966
   A58        2.06404   0.00008   0.00000  -0.01226  -0.01225   2.05179
   A59        3.34994  -0.00009   0.00000   0.00543   0.00525   3.35518
   A60        3.10454   0.00026   0.00000  -0.00651  -0.00658   3.09796
    D1       -1.46729   0.00012   0.00000   0.07415   0.07375  -1.39354
    D2       -2.81270   0.00037   0.00000   0.03940   0.03961  -2.77309
    D3        1.65811   0.00023   0.00000   0.07583   0.07529   1.73340
    D4        0.31270   0.00048   0.00000   0.04108   0.04115   0.35385
    D5       -0.00387   0.00016   0.00000   0.00340   0.00333  -0.00054
    D6       -3.13156   0.00006   0.00000   0.00192   0.00198  -3.12957
    D7        0.52201   0.00022   0.00000  -0.03985  -0.03983   0.48217
    D8       -2.63544   0.00034   0.00000  -0.03818  -0.03831  -2.67375
    D9       -0.67995  -0.00045   0.00000  -0.07988  -0.07991  -0.75986
   D10        0.81020  -0.00062   0.00000  -0.03526  -0.03571   0.77449
   D11        0.92511   0.00112   0.00000  -0.01264  -0.01286   0.91225
   D12       -1.55704   0.00002   0.00000   0.01020   0.00982  -1.54722
   D13       -1.53747   0.00095   0.00000   0.06615   0.06660  -1.47087
   D14        1.71498   0.00105   0.00000   0.04318   0.04331   1.75829
   D15        3.12053  -0.00011   0.00000  -0.00052  -0.00050   3.12003
   D16       -0.00512  -0.00005   0.00000   0.00105   0.00106  -0.00406
   D17       -0.01979  -0.00003   0.00000  -0.00074  -0.00077  -0.02056
   D18        3.13774   0.00003   0.00000   0.00082   0.00080   3.13854
   D19        0.02493  -0.00005   0.00000   0.00095   0.00102   0.02595
   D20        3.04029  -0.00016   0.00000   0.00488   0.00492   3.04521
   D21       -3.11532   0.00003   0.00000   0.00071   0.00074  -3.11458
   D22       -0.09996  -0.00007   0.00000   0.00464   0.00464  -0.09532
   D23        3.14115  -0.00002   0.00000  -0.00035  -0.00028   3.14086
   D24       -0.00008  -0.00002   0.00000  -0.00038  -0.00035  -0.00043
   D25        0.00234   0.00004   0.00000  -0.00067  -0.00064   0.00170
   D26       -3.13888   0.00004   0.00000  -0.00071  -0.00071  -3.13960
   D27        0.00265  -0.00012   0.00000   0.00084   0.00085   0.00350
   D28       -3.14110  -0.00000   0.00000  -0.00012   0.00004  -3.14106
   D29       -3.13617  -0.00006   0.00000   0.00053   0.00050  -3.13567
   D30        0.00326   0.00006   0.00000  -0.00043  -0.00031   0.00295
   D31        0.00661   0.00004   0.00000   0.00067   0.00065   0.00726
   D32        3.13122  -0.00002   0.00000  -0.00096  -0.00098   3.13023
   D33       -3.13533   0.00004   0.00000   0.00070   0.00071  -3.13461
   D34       -0.01072  -0.00002   0.00000  -0.00093  -0.00092  -0.01164
   D35       -0.01720   0.00012   0.00000  -0.00106  -0.00112  -0.01832
   D36        3.12653   0.00000   0.00000  -0.00011  -0.00031   3.12622
   D37       -3.02287   0.00036   0.00000  -0.00306  -0.00316  -3.02603
   D38        0.12086   0.00024   0.00000  -0.00210  -0.00235   0.11851
   D39       -2.16693  -0.00005   0.00000  -0.00097  -0.00123  -2.16816
   D40        2.07326   0.00003   0.00000   0.00051   0.00039   2.07364
   D41       -0.02607   0.00032   0.00000   0.00451   0.00437  -0.02170
   D42        0.84883  -0.00015   0.00000   0.00201   0.00175   0.85058
   D43       -1.19416  -0.00007   0.00000   0.00350   0.00337  -1.19080
   D44        2.98970   0.00022   0.00000   0.00749   0.00735   2.99704
   D45       -3.09544   0.00040   0.00000  -0.01430  -0.01443  -3.10987
   D46       -0.00212   0.00042   0.00000   0.00483   0.00481   0.00270
   D47        0.04402   0.00051   0.00000  -0.01525  -0.01525   0.02877
   D48        3.13734   0.00054   0.00000   0.00387   0.00400   3.14134
   D49       -1.13907   0.00008   0.00000  -0.00506  -0.00492  -1.14399
   D50        0.98582   0.00014   0.00000   0.00154   0.00177   0.98759
   D51        3.06977  -0.00003   0.00000  -0.00221  -0.00204   3.06773
   D52       -2.86472  -0.00004   0.00000  -0.01282  -0.01293  -2.87765
   D53       -0.73983   0.00003   0.00000  -0.00622  -0.00624  -0.74607
   D54        1.34412  -0.00014   0.00000  -0.00997  -0.01005   1.33407
   D55       -1.02789   0.00007   0.00000   0.00636   0.00631  -1.02158
   D56        1.09393   0.00042   0.00000   0.01578   0.01583   1.10976
   D57       -3.10498   0.00069   0.00000   0.01289   0.01297  -3.09201
   D58        0.73804  -0.00011   0.00000   0.01470   0.01469   0.75272
   D59        2.85985   0.00024   0.00000   0.02412   0.02421   2.88406
   D60       -1.33905   0.00051   0.00000   0.02123   0.02135  -1.31771
   D61        2.65734   0.00067   0.00000   0.01292   0.01303   2.67037
   D62       -1.58334   0.00056   0.00000   0.01119   0.01117  -1.57218
   D63        0.51974   0.00038   0.00000   0.00753   0.00753   0.52727
   D64        0.89479  -0.00025   0.00000  -0.00479  -0.00472   0.89006
   D65        2.93728  -0.00036   0.00000  -0.00653  -0.00658   2.93070
   D66       -1.24282  -0.00055   0.00000  -0.01018  -0.01022  -1.25304
   D67        0.56505  -0.00011   0.00000   0.00050   0.00058   0.56563
   D68        2.69393   0.00050   0.00000   0.01274   0.01280   2.70674
   D69       -1.50228  -0.00003   0.00000   0.00500   0.00508  -1.49721
   D70       -0.16021   0.00057   0.00000   0.00627   0.00618  -0.15402
   D71        0.27500   0.00013   0.00000   0.02489   0.02487   0.29987
   D72       -1.79583  -0.00025   0.00000   0.02119   0.02123  -1.77460
   D73        2.34689   0.00058   0.00000   0.02814   0.02811   2.37500
   D74       -2.50828   0.00046   0.00000   0.02185   0.02194  -2.48634
   D75        0.67220   0.00064   0.00000   0.02031   0.02018   0.69238
   D76       -0.96088   0.00018   0.00000   0.02418   0.02409  -0.93679
   D77        2.31052   0.00064   0.00000   0.02299   0.02299   2.33351
   D78        2.92418   0.00043   0.00000  -0.00204  -0.00198   2.92220
   D79       -0.26275  -0.00048   0.00000  -0.00307  -0.00301  -0.26576
   D80       -1.85379  -0.00025   0.00000  -0.00054  -0.00068  -1.85446
   D81        1.42143   0.00020   0.00000  -0.00199  -0.00202   1.41940
         Item               Value     Threshold  Converged?
 Maximum Force            0.007708     0.000015     NO 
 RMS     Force            0.001182     0.000010     NO 
 Maximum Displacement     0.134551     0.000060     NO 
 RMS     Displacement     0.036666     0.000040     NO 
 Predicted change in Energy=-4.504183D-04
 GradGradGradGradGradGradGradGradGradGradGradGradGradGradGradGradGradGrad

                          Input orientation:                          
 ---------------------------------------------------------------------
 Center     Atomic      Atomic             Coordinates (Angstroms)
 Number     Number       Type             X           Y           Z
 ---------------------------------------------------------------------
      1          6           0       -2.173770   -1.921064   -0.007721
      2          8           0       -2.108397   -1.239524    1.045259
      3          8           0       -3.354989   -2.586106   -0.249713
      4          8           0       -1.299658   -2.075071   -0.899643
      5          1           0       -3.913290   -2.359835    0.508619
      6          6           0        2.533329    1.243525    0.121043
      7          6           0        3.480681   -1.399050    0.235066
      8          6           0        4.330719   -0.364172    0.423880
      9          7           0        3.880830    0.914773    0.366137
     10          1           0        3.824317   -2.425749    0.277334
     11          1           0        5.388988   -0.496078    0.625867
     12          8           0        2.195114    2.420544    0.105488
     13          7           0        1.689447    0.190867   -0.084039
     14          6           0        2.094942   -1.086400   -0.028771
     15          7           0        1.217871   -2.056647   -0.220824
     16          1           0        0.174156   -1.935957   -0.450004
[...]
 0000508,0.00000285,-0.00000076,0.00000405,-0.00000228,-0.00016759,0.00
 032739,0.00003693,0.00072354,0.00004859,0.00001309,0.00010482,0.000127
 27,0.00002532,-0.00003512,-0.00002161,-0.00000179,0.00001825,0.0000015
 4,-0.00001411,-0.00000154,0.00000075,-0.00000460,0.00002744,-0.0000104
 2,0.00000692,-0.01589565,-0.01601892,-0.02371922,-0.00064356,-0.001282
 00,0.00283903,0.00004205,0.00023572,-0.00017110,0.00058740,0.00145006,
 -0.00005455,0.00025918,-0.00041846,0.00050911,-0.07832222,-0.04646443,
 -0.07373196,0.07876963,0.05213538,0.08368214,-0.00001512,-0.00007923,-
 0.00003882,0.00009333,-0.00013079,0.00006830,0.00001006,0.00005257,0.0
 0000284,-0.00002126,0.00004956,-0.00000500,-0.00000476,-0.00002541,0.0
 0001061,0.00008204,-0.00015826,-0.00003427,-0.00002228,-0.00002301,-0.
 00000211,0.00000230,0.00000529,-0.00000268,-0.00002379,0.00002981,0.00
 000035,0.00000701,-0.00000082,0.00000110,-0.00000182,0.00000158,-0.000
 00109,-0.00008858,0.00006550,0.00005629,0.00021135,-0.00008773,0.00004
 569,0.00009893,0.00002878,0.00000518,-0.00004810,-0.00000844,0.0000043
 6,0.00005569,-0.00001682,0.00000603,-0.00000112,-0.00000400,-0.0000040
 1,0.00001450,0.00000452,-0.00000263,0.00247724,-0.00065859,-0.00049675
 ,0.00009699,-0.00035030,-0.00027881,-0.00013496,-0.00032020,0.00060585
 ,-0.00023953,-0.00000098,-0.00000985,0.00014579,-0.00019081,-0.0000778
 3,-0.24857487,0.12296750,0.03044727,-0.01844177,0.01427291,0.00383740,
 0.26077890,0.00051675,0.00061434,0.00131056,-0.00003219,-0.00180235,-0
 .00109712,-0.00058770,-0.00024750,-0.00028415,0.00028678,-0.00018488,-
 0.00048368,0.00017900,-0.00004400,-0.00000221,-0.00004201,-0.00021647,
 -0.00003896,0.00004174,0.00000080,0.00000720,-0.00000288,-0.00004090,-
 0.00000292,0.00003599,0.00006095,0.00000909,0.00000901,-0.00000263,0.0
 0000086,0.00000374,0.00000152,0.00000013,-0.00000277,0.00010138,0.0000
 5298,0.00023453,-0.00000611,0.00007680,-0.00002877,0.00000998,0.000001
 25,0.00013142,0.00002182,0.00001335,-0.00025746,-0.00000456,-0.0000251
 2,0.00000073,0.00000396,0.00000157,0.00000384,-0.00000838,-0.00000525,
 0.00137186,-0.00168123,0.00126832,-0.00103028,0.00077041,0.00004126,0.
 00042729,0.00032180,-0.00032277,-0.00005819,-0.00000748,-0.00002056,0.
 00001152,-0.00007109,-0.00006410,0.12346860,-0.12540996,-0.02010651,-0
 .01489349,0.00957212,0.00359905,-0.13299467,0.12767448,0.00043233,-0.0
 0010358,-0.00110770,-0.00027980,0.00081844,0.00097534,-0.00000874,0.00
 008294,0.00016717,-0.00046235,-0.00013966,0.00058732,-0.00003057,-0.00
 004228,-0.00000036,-0.00011481,-0.00076612,-0.00009907,0.00002642,-0.0
 0012260,-0.00002029,-0.00000714,-0.00001080,-0.00000215,0.00016194,0.0
 0015317,0.00002221,0.00005162,-0.00001758,0.00000560,0.00000631,-0.000
 00071,0.00000327,0.00000145,0.00033252,0.00009549,0.00128955,-0.000275
 04,0.00063558,0.00022573,0.00065052,0.00001948,-0.00027590,-0.00022472
 ,0.00000784,0.00025289,0.00007645,-0.00000934,0.00000635,0.00001497,-0
 .00001013,0.00004336,-0.00002469,-0.00000311,0.02281900,-0.01501848,-0
 .01127883,-0.00019691,-0.00071072,0.00246614,-0.00041475,0.00106932,-0
 .00015606,0.00002027,0.00023163,-0.00023513,-0.00035501,-0.00030542,0.
 00025600,0.03467194,-0.02009916,-0.04737018,-0.00872701,0.00719145,0.0
 0251763,-0.03280318,0.02223821,0.05259093,0.00016666,0.00034986,0.0013
 1273,-0.00124658,0.00042022,-0.00091600,-0.00092119,-0.00042791,-0.000
 56928,0.00036817,-0.00018506,-0.00045190,0.00024009,-0.00020579,-0.000
 07013,-0.00006494,-0.00020799,0.00001809,0.00005578,0.00004712,0.00000
 384,-0.00000694,-0.00006639,-0.00000026,-0.00000254,0.00006615,-0.0000
 0726,-0.00000308,-0.00000004,0.00000412,0.00000197,0.00000215,0.000002
 18,0.00000159,0.00014201,-0.00000823,-0.00001360,0.00020619,-0.0000952
 7,-0.00015485,-0.00008784,0.00003442,0.00016430,0.00005204,-0.00005182
 ,-0.00019350,0.00000888,0.00001485,0.00000073,0.00000898,0.00001922,-0
 .00000782,-0.00001317,0.00000647,-0.00080204,-0.00288019,0.00181731,-0
 .00041354,0.00025853,0.00107203,0.00008331,-0.00016341,0.00013486,0.00
 016967,0.00034304,-0.00018140,0.00041876,-0.00032678,0.00018764,-0.051
 94745,-0.01633735,0.00620377,-0.00063492,-0.02273361,0.01330109,0.0034
 4373,0.02418599,-0.01408706,0.05170322,-0.00124047,-0.00304881,-0.0053
 7331,0.00169583,-0.00153511,0.00278886,0.00097928,0.00098686,0.0008023
 4,-0.00175707,0.00069064,0.00274220,-0.00044994,-0.00033066,-0.0001495
 1,-0.00005332,0.00023241,0.00001719,-0.00018012,-0.00019237,-0.0000336
 1,-0.00000629,0.00022624,0.00000761,0.00011611,-0.00016997,0.00001792,
 0.00003099,-0.00000885,0.00000338,-0.00000336,-0.00000803,-0.00000157,
 0.00009291,-0.00019467,-0.00002458,0.00045493,-0.00065688,0.00000669,0
 .00044853,0.00096617,0.00009200,-0.00099373,-0.00044160,-0.00012364,0.
 00146480,0.00007156,0.00015228,0.00000554,0.00001818,-0.00002436,0.000
 01860,0.00001162,0.00000906,0.00070092,0.00771187,-0.00147875,0.000728
 63,-0.00054124,-0.00318981,-0.00008807,-0.00021781,0.00006438,0.000079
 71,-0.00014933,0.00009559,0.00013710,0.00110255,-0.00052170,-0.0173815
 5,-0.28065123,0.11555964,0.00108001,-0.00978300,0.00545836,-0.00260960
 ,-0.00976580,0.00497353,0.01776190,0.29480747,-0.00038620,-0.00169198,
 -0.00425493,-0.00050870,0.00268564,0.00167903,0.00082513,0.00068454,0.
 00050069,-0.00125903,0.00020662,0.00182110,-0.00025349,-0.00022058,0.0
 0007525,0.00006114,0.00016450,0.00002450,-0.00012882,-0.00009859,-0.00
 003296,-0.00000541,0.00013178,0.00000373,0.00000555,-0.00010305,-0.000
 00693,0.00000840,-0.00000109,0.00000441,-0.00000686,-0.00000451,0.0000
 0026,-0.00001632,-0.00011758,0.00000819,0.00014544,-0.00033019,-0.0000
 2060,0.00026373,0.00046449,0.00006464,-0.00063840,-0.00022930,-0.00010
 408,0.00103129,0.00003687,0.00012181,-0.00000309,0.00000631,-0.0000008
 0,0.00001046,0.00001144,0.00000631,0.00250002,0.02524954,-0.01616226,0
 .00102816,-0.00273199,-0.00786348,-0.00016803,-0.00041465,0.00018415,0
 .00006207,-0.00051579,0.00022944,0.00017092,0.00255228,-0.00048610,0.0
 0681384,0.11355511,-0.09844997,-0.00002108,-0.01153926,0.00684971,-0.0
 0136814,-0.00626567,0.00344338,-0.00810551,-0.12182056,0.11216482,0.00
 713918,-0.00589280,-0.00772095,-0.00828944,0.00223659,0.00450479,-0.00
 370289,0.00050072,-0.00019263,-0.01211800,0.00080870,0.00322321,0.0001
 6225,-0.00116834,0.00059732,-0.01118463,-0.04074700,-0.00412128,0.0013
 6158,-0.00780854,0.00027266,-0.00086173,-0.00024680,-0.00022124,0.0073
 1179,0.00747367,0.00199032,0.00273171,-0.00070559,0.00057258,0.0003316
 9,0.00003860,0.00000037,-0.00592893,0.01622484,0.00008601,0.04358931,-
 0.02462168,0.00423289,0.01562756,0.03616693,0.00368185,-0.01305741,-0.
 01188902,-0.00274731,0.01469237,0.00062529,0.00248687,-0.00044499,0.00
 043313,-0.00020666,0.00181623,-0.00128314,0.00031472,0.04284563,-0.015
 74374,0.01140221,0.00787089,0.00161878,-0.00448552,-0.00156509,-0.0052
 6458,0.00149870,-0.00056226,-0.00299519,0.00079553,-0.00000867,-0.0003
 9072,0.00027382,-0.00020415,-0.00068931,0.00598091,-0.00014122,-0.0007
 2463,-0.00347516,-0.00027686,-0.00090510,-0.00387602,0.00036245,-0.001
 94252,-0.00099443,0.01165864,-0.00325780,0.00248236,0.00788708,-0.0043
 9841,-0.00822545,0.00058621,-0.00014091,-0.00076514,-0.00149659,0.0041
 0039,-0.00360519,-0.00152989,0.00037928,0.00060370,-0.00013271,-0.0048
 6427,0.01677171,0.00087286,-0.00013761,0.00081192,-0.00023600,0.000099
 42,-0.00048629,0.00003602,-0.00287398,-0.00342564,-0.00088238,-0.00040
 588,0.00026630,-0.00009551,-0.00008674,0.00002949,0.00001036,0.0001639
 1,-0.00554869,-0.00073151,-0.02393414,-0.02010736,-0.00209140,0.001884
 21,-0.01291434,-0.00043736,0.00620310,0.00402246,0.00125947,-0.0061406
 8,-0.00118137,-0.00104411,0.00011544,-0.00022365,0.00001131,-0.0009374
 3,0.00069049,-0.00014187,-0.03757002,-0.01527214,-0.00335589,0.0094095
 6,-0.00637283,0.00162600,-0.00019302,-0.00128493,0.00108616,0.00182685
 ,0.00117238,-0.00007926,-0.00029512,0.00070391,-0.00037396,0.00370526,
 -0.00128817,-0.00297499,0.00113197,0.00055825,0.00109414,0.00049000,0.
 00029483,0.00016408,-0.00068181,0.00031029,0.00026458,0.22770773,0.637
 22739,0.00126728,0.00008237,-0.00143113,0.00137382,0.00280661,0.001737
 31,0.00028990,0.00046994,0.00033425,-0.00113015,0.00058616,-0.00064325
 ,-0.00020219,-0.00009170,0.00008419,-0.00203392,-0.00180362,-0.0016641
 0,-0.00018907,-0.00069034,0.00196581,0.00004456,-0.00000070,-0.0003267
 9,0.00033925,0.00003066,0.00174269,0.00018473,-0.00006248,0.00019613,0
 .00008495,0.00000034,-0.00026734,0.00032676,0.00101029,0.00100138,0.00
 543260,-0.00298097,-0.02189624,0.00111543,0.00374085,0.00024737,-0.001
 37951,-0.00131747,-0.00163023,0.00188411,0.00000364,0.00109855,0.00001
 040,0.00006849,-0.00011384,0.00002167,-0.00006569,0.00015883,-0.001609
 06,0.00226156,-0.02715780,-0.00554234,0.00220721,0.00050553,0.00008685
 ,0.00092724,-0.00042201,0.00024284,-0.00092927,-0.00012324,0.00005224,
 -0.00039044,0.00027974,0.01384956,-0.00609548,-0.00145926,0.00044303,0
 .00019412,0.00110031,0.00043479,0.00004952,-0.00380118,-0.00012142,0.0
 0001388,0.00048006,-0.05946361,0.01904624,0.67474084,-0.00050748,-0.00
 732853,-0.01055545,0.00017160,0.00447060,0.00386945,0.00254685,0.00174
 899,0.00241461,-0.00312381,0.00124092,0.00353726,-0.00093992,-0.000143
 22,-0.00008512,-0.00138175,0.00253018,0.00064779,0.00000975,0.00030531
 ,-0.00035625,0.00005896,-0.00005383,0.00004888,-0.00029805,-0.00074626
 ,-0.00042552,-0.00009470,0.00005056,-0.00005891,-0.00002213,-0.0000068
 4,0.00005608,0.00014043,-0.00073645,-0.00015851,-0.01586297,-0.0025606
 8,0.00531366,-0.00225232,-0.00136475,0.00053249,-0.00030791,0.00021056
 ,-0.00017480,0.00207967,0.00116741,0.00120736,0.00019476,0.00003034,-0
 .00014847,-0.00019909,0.00013095,-0.00005075,-0.01448711,0.01503515,-0
 .01266207,-0.00421972,0.00097714,0.00044433,0.00029530,0.00125670,-0.0
 0056876,0.00003198,-0.00030098,0.00009346,0.00004883,-0.00027874,0.000
 10706,0.00138536,-0.00016945,-0.00134871,0.00033403,0.00001024,0.00046
 065,0.00009961,-0.00031438,0.00006999,-0.00087954,0.00075879,0.0010897
 9,-0.03190310,-0.05192999,0.05667210,0.06807164,-0.00237759,-0.0076458
 4,-0.00915648,0.00357927,0.00027531,0.00337431,0.00210139,0.00219899,0
 .00183667,-0.00278971,0.00072897,0.00339256,-0.00086869,-0.00029004,-0
 .00000575,0.00003828,-0.00236722,-0.00021153,-0.00062217,-0.00056696,0
 .00026625,0.00008959,0.00058450,0.00001136,0.00044439,-0.00001314,0.00
 053048,0.00016063,-0.00007310,0.00002179,0.00001221,-0.00001227,-0.000
 06812,-0.00072316,0.00057591,-0.00039064,0.00696423,-0.00011614,-0.004
 07416,0.00256557,0.00519244,0.00009669,-0.00332523,-0.00168941,-0.0000
 7470,0.00376301,-0.00191337,-0.00163364,-0.00018691,0.00005202,0.00005
 950,0.00018454,-0.00005369,0.00003123,0.00570855,-0.00314735,0.0028561
 5,0.00052546,-0.00070390,-0.00038293,0.00001754,-0.00006569,0.00028984
 ,0.00017603,0.00004508,0.00013396,0.00000867,-0.00000285,0.00005019,-0
 .00012002,0.00010609,0.00004815,0.00002182,-0.00057845,-0.00026282,-0.
 00024575,-0.00007025,-0.00002347,0.00030509,0.00065642,0.00013737,-0.0
 5416617,-0.17181154,0.14412038,0.03710585,0.17528659,-0.00415624,0.001
 40933,0.00694227,0.00061511,-0.00074008,-0.00671523,-0.00061980,-0.001
 45983,-0.00126879,0.00256301,0.00045742,-0.00253785,0.00051075,0.00014
 608,-0.00009626,-0.00004466,0.00010993,0.00031330,0.00004759,0.0001583
 7,-0.00019917,-0.00007493,-0.00016780,0.00001165,-0.00049237,-0.000055
 69,-0.00026211,-0.00006279,0.00003726,0.00000325,-0.00002566,0.0000111
 5,0.00001295,-0.00090330,-0.00004282,-0.00041014,-0.00258042,-0.001464
 93,0.00215716,0.00002737,-0.00149126,0.00013956,0.00121210,0.00073759,
 -0.00009890,-0.00035208,-0.00145430,-0.00018798,-0.00017831,-0.0000653
 4,0.00002087,-0.00008458,0.00005741,0.00001135,-0.00160074,-0.00006667
 ,0.00040741,0.00084238,-0.00057424,-0.00032946,0.00011122,-0.00032054,
 0.00028303,0.00005136,0.00022892,0.00005929,-0.00000699,0.00002975,-0.
 00001240,0.00003468,-0.00022076,0.00069575,-0.00015392,-0.00016865,0.0
 0007848,-0.00009132,0.00019585,-0.00025913,0.00073592,-0.00015180,-0.0
 0029689,0.05421698,0.14001223,-0.22364761,-0.05225594,-0.14449275,0.22
 614386,-0.00186087,0.00043177,0.00237038,0.00031025,-0.00116414,-0.001
 07031,0.00046186,-0.00001594,-0.00016528,0.00070256,0.00029733,-0.0014
 4090,0.00000075,0.00005775,0.00000051,-0.00092991,0.00280166,-0.000663
 19,-0.00000106,0.00054650,0.00040042,0.00007012,-0.00022317,-0.0000479
 4,-0.00074844,-0.00073238,0.00022988,-0.00018038,0.00006914,-0.0000092
 1,-0.00001093,0.00000583,-0.00006375,-0.00010489,-0.00074053,0.0001408
 2,-0.01401674,-0.00026327,-0.01070956,-0.00202034,-0.00247553,-0.00111
 962,0.00097492,0.00082607,0.00034317,0.00028073,0.00037380,-0.00047404
 ,0.00005347,-0.00003983,0.00009840,-0.00024059,0.00014845,-0.00001804,
 -0.01198763,0.00826571,0.01256559,-0.00027329,-0.00028302,0.00007825,0
 .00006227,0.00021449,-0.00023912,-0.00004153,0.00012049,-0.00002567,0.
 00005960,0.00024658,-0.00014475,-0.00414112,0.00155955,0.00003823,-0.0
 0010477,-0.00002339,-0.00034172,-0.00008759,0.00001355,0.00141704,0.00
 007775,0.00015516,-0.00012205,-0.01770037,-0.00785747,0.00331621,0.001
 20600,0.00289600,0.00456212,0.04877918,-0.00237556,0.00100913,0.003242
 77,-0.00041593,-0.00148204,-0.00175910,0.00064962,-0.00010897,-0.00033
 043,0.00093149,-0.00039427,-0.00234309,0.00008955,-0.00000744,0.000025
 33,0.00008116,-0.00194945,-0.00020786,-0.00022243,-0.00034233,-0.00038
 515,0.00002005,0.00026351,0.00003178,0.00024777,0.00013952,-0.00027286
 ,0.00010703,-0.00004449,0.00001833,-0.00001598,-0.00000361,0.00005161,
 -0.00103516,0.00051986,0.00057521,0.00465064,-0.00100838,0.00468518,0.
 00180003,0.00270462,0.00089715,-0.00149032,-0.00057014,-0.00069684,0.0
 0127292,-0.00183471,0.00155544,-0.00015637,0.00002239,-0.00010914,0.00
 012125,-0.00001993,0.00000731,0.00429332,-0.00258971,-0.00265877,0.000
 12417,-0.00025921,-0.00034947,0.00000130,-0.00015480,0.00032483,0.0000
 9904,0.00002438,-0.00003435,0.00022084,-0.00023692,0.00022526,0.000386
 15,-0.00035891,-0.00020074,0.00009226,0.00003271,0.00017452,0.00005085
 ,0.00017363,-0.00012871,0.00012678,0.00006256,-0.00000944,-0.01040156,
 -0.09079148,-0.11179342,0.00085486,0.01014538,0.01600358,-0.00316132,0
 .08895349,0.00161819,-0.00039147,-0.00208285,0.00053975,0.00101176,0.0
 0094912,-0.00030456,0.00007262,0.00027141,-0.00128083,-0.00142656,0.00
 095759,-0.00008697,0.00002029,-0.00001376,0.00011308,-0.00057538,-0.00
 000112,0.00012504,0.00016418,-0.00015192,0.00005348,-0.00007820,0.0000
 2627,0.00011461,0.00015605,-0.00015250,-0.00001209,-0.00001436,0.00000
 736,0.00000112,0.00000420,0.00002237,-0.00020954,0.00025167,-0.0000036
 7,-0.00074579,0.00123454,0.00182791,-0.00073121,-0.00003740,-0.0003351
 5,-0.00001413,-0.00003083,-0.00004237,-0.00052995,0.00083897,-0.000210
 22,0.00011842,0.00002456,0.00004486,0.00004330,-0.00000823,0.00001951,
 -0.00039855,0.00115495,0.00315061,0.00001490,-0.00016454,0.00017260,0.
 00000271,0.00004765,-0.00014584,-0.00003243,0.00006596,-0.00000495,0.0
 0005909,0.00005396,-0.00006168,-0.00148509,0.00056792,-0.00018045,0.00
 002886,0.00018382,-0.00005262,-0.00006603,0.00005612,0.00070545,-0.000
 13259,-0.00002717,0.00000165,0.00457835,-0.10977789,-0.33603976,-0.001
 84428,-0.01130080,-0.01167613,-0.00064890,0.11539659,0.34134330,-0.000
 92453,0.00027556,0.00092816,0.00029754,-0.00060615,-0.00007530,0.00030
 300,-0.00000885,-0.00006292,0.00084966,0.00038041,-0.00038425,0.000007
 53,0.00004501,-0.00003986,-0.00468536,0.01349467,0.00018703,-0.0002320
 2,0.00061441,-0.00018784,0.00020885,0.00108429,0.00012845,0.00138735,-
 0.00269887,-0.00006577,-0.00040151,0.00004408,-0.00008941,0.00003656,-
 0.00014742,0.00004574,0.00191471,-0.00606955,0.00002121,-0.01212717,0.
 01287323,0.00063301,-0.00278308,-0.00099418,-0.00036471,-0.00026979,-0
 .00017636,-0.00003673,-0.00015082,-0.00054647,0.00005499,-0.00006026,0
 .00006150,0.00002272,-0.00037654,0.00002628,-0.00009445,-0.02264641,-0
 .00552207,-0.00309093,0.00016771,-0.00191945,0.00029630,0.00043670,0.0
 0009544,0.00031681,0.00041501,0.00186911,-0.00013826,0.00002364,0.0001
 1412,-0.00008563,0.00032631,-0.00037633,-0.00148443,0.00035101,0.00047
 893,0.00095523,0.00036493,0.00022754,0.00014308,0.00003435,-0.00000371
 ,-0.00003039,-0.04955152,-0.11151185,-0.01580184,-0.00019519,-0.001242
 72,-0.00184651,0.00141099,0.00305353,0.00111204,0.08586837,0.00079435,
 0.00013971,0.00001589,-0.00104302,-0.00035021,0.00033007,-0.00052331,-
 0.00006859,-0.00021456,-0.00058111,-0.00038780,0.00009302,0.00006379,-
 0.00004447,0.00004841,0.00101093,0.00127622,-0.00004756,0.00006499,-0.
 00029965,-0.00001537,0.00006336,0.00013999,0.00002291,0.00066404,-0.00
 058689,0.00001240,0.00004933,0.00000138,0.00002603,0.00002401,-0.00004
 021,0.00002150,-0.00219680,-0.00222737,-0.00017296,0.00506884,-0.00555
 451,0.00029487,0.00064880,0.00040266,-0.00001224,-0.00016065,-0.000064
 47,-0.00004164,0.00017474,0.00013000,0.00011761,0.00001232,0.00004001,
 -0.00001450,-0.00004229,0.00000106,-0.00001187,0.00983362,0.00244245,0
 .00149295,0.00083563,0.00241724,-0.00010479,-0.00023429,-0.00001122,-0
 .00020849,-0.00040185,-0.00055132,-0.00044035,-0.00011742,-0.00002621,
 0.00001605,0.00000365,0.00032254,0.00132482,-0.00076761,-0.00005356,-0
 .00003889,-0.00011346,-0.00005844,0.00001652,0.00003241,-0.00015948,-0
 .00005688,-0.10624855,-0.32264126,-0.05139791,-0.00195047,-0.00472647,
 -0.00665741,-0.00204983,-0.00189439,0.00252706,0.09708587,0.33243328,0
 .00028187,-0.00148259,-0.00265488,0.00188151,0.00239592,0.00002353,0.0
 0034997,0.00034618,0.00053990,-0.00084011,-0.00045765,0.00131705,-0.00
 018398,-0.00004164,-0.00002369,-0.00053311,0.00087159,0.00113434,-0.00
 005476,0.00007260,0.00012477,-0.00000726,0.00008969,0.00007966,0.00003
 514,-0.00016474,0.00019770,-0.00004565,0.00000625,0.00001044,0.0000033
 1,-0.00000617,-0.00001879,-0.00000401,-0.00048417,-0.00198639,-0.00049
 092,0.00117431,-0.00051545,-0.00017980,0.00014635,-0.00034800,-0.00020
 077,-0.00002565,0.00014503,0.00018694,0.00000092,-0.00046256,-0.000020
 42,0.00001151,0.00004055,-0.00001893,-0.00000739,-0.00001312,-0.002213
 33,-0.00015629,-0.00073073,0.00012750,-0.00035112,-0.00011825,0.000229
 35,0.00010616,-0.00002676,-0.00019173,0.00042664,0.00040822,-0.0002270
 9,0.00002181,-0.00020589,0.00076842,0.00065306,0.00057964,-0.00003899,
 -0.00044322,-0.00018793,-0.00024355,-0.00020310,-0.00014619,-0.0000704
 1,0.00011547,0.00001587,-0.01320526,-0.04857542,-0.06504923,0.00412857
 ,0.01482093,0.01071787,-0.00825698,-0.02193553,0.00165494,0.01903447,0
 .05307530,0.05549835\\-0.00000028,0.00000081,-0.00000115,-0.00000046,0
 .00000065,-0.00000101,-0.00000037,0.00000134,-0.00000183,0.00000015,0.
 00000065,-0.00000075,-0.00000067,0.00000143,-0.00000206,0.00000096,-0.
 00000079,0.00000164,-0.00000011,-0.00000142,0.00000171,0.00000019,-0.0
 0000176,0.00000229,0.00000075,-0.00000158,0.00000225,-0.00000054,-0.00
 000152,0.00000173,0.00000004,-0.00000219,0.00000278,0.00000141,-0.0000
 0092,0.00000163,0.00001364,-0.00010186,-0.00044752,0.00000012,-0.00000
 097,0.00000107,-0.00000013,-0.00000042,0.00000051,-0.00001814,0.000000
 67,-0.00000774,-0.00000054,-0.00000055,0.00000052,0.00000093,-0.000001
 82,0.00000267,-0.00000639,-0.00008683,-0.00041631,0.00000225,0.0000010
 6,-0.00000047,0.00000238,0.00000139,-0.00000085,0.00000217,0.00000064,
 0.,0.00000271,0.00000112,-0.00000039,0.00000052,0.00000083,-0.00000086
 ,0.00000053,0.00000044,-0.00000036,0.00000066,0.00000117,-0.00000123,-
 0.00000010,0.00000080,-0.00000105,-0.00000456,0.00018921,0.00086423,0.
 00000031,0.00000013,-0.00000006,0.00000131,0.00000031,0.00000010,0.000
 00127,-0.00000002,0.00000050\\\@


 IF YOU DON'T HAVE THE LAW - ARGUE THE FACTS.
 IF YOU DON'T HAVE THE FACTS - ARGUE THE LAW.
 IF YOU DON'T HAVE EITHER - POUND THE TABLE.
 Job cpu time:       0 days  0 hours 46 minutes  4.4 seconds.
 File lengths (MBytes):  RWF=    297 Int=      0 D2E=      0 Chk=      7 Scr=      1
 Normal termination of Gaussian 09 at Wed Mar 24 04:35:57 2021.
