 Entering Gaussian System, Link 0=g09
 Initial command:
 /opt/software/gaussian/g09.e01/l1.exe "/localscratch/enas93.64557540.0/Gau-13224.inp" -scrdir="/localscratch/enas93.64557540.0/"
 Entering Link 1 = /opt/software/gaussian/g09.e01/l1.exe PID=     13227.
  
 Copyright (c) 1988,1990,1992,1993,1995,1998,2003,2009,2015,
            Gaussian, Inc.  All Rights Reserved.
  
 This is part of the Gaussian(R) 09 program.  It is based on
 the Gaussian(R) 03 system (copyright 2003, Gaussian, Inc.),
 the Gaussian(R) 98 system (copyright 1998, Gaussian, Inc.),
 the Gaussian(R) 94 system (copyright 1995, Gaussian, Inc.),
 the Gaussian 92(TM) system (copyright 1992, Gaussian, Inc.),
 the Gaussian 90(TM) system (copyright 1990, Gaussian, Inc.),
 the Gaussian 88(TM) system (copyright 1988, Gaussian, Inc.),
 the Gaussian 86(TM) system (copyright 1986, Carnegie Mellon
 University), and the Gaussian 82(TM) system (copyright 1983,
 Carnegie Mellon University). Gaussian is a federally registered
 trademark of Gaussian, Inc.
  
 This software contains proprietary and confidential information,
 including trade secrets, belonging to Gaussian, Inc.
  
 This software is provided under written license and may be
 used, copied, transmitted, or stored only in accord with that
 written license.
  
 The following legend is applicable only to US Government
 contracts under FAR:
  
                    RESTRICTED RIGHTS LEGEND
  
 Use, reproduction and disclosure by the US Government is
 subject to restrictions as set forth in subparagraphs (a)
 and (c) of the Commercial Computer Software - Restricted
 Rights clause in FAR 52.227-19.
  
 Gaussian, Inc.
 340 Quinnipiac St., Bldg. 40, Wallingford CT 06492
  
  
 ---------------------------------------------------------------
 Warning -- This program may not be used in any manner that
 competes with the business of Gaussian, Inc. or will provide
 assistance to any competitor of Gaussian, Inc.  The licensee
 of this program is prohibited from giving any competitor of
 Gaussian, Inc. access to this program.  By using this program,
 the user acknowledges that Gaussian, Inc. is engaged in the
 business of creating and licensing software in the field of
 computational chemistry and represents and warrants to the
 licensee that it is not a competitor of Gaussian, Inc. and that
 it will not use this program in any manner prohibited above.
 ---------------------------------------------------------------
  

 Cite this work as:
 Gaussian 09, Revision E.01,
 M. J. Frisch, G. W. Trucks, H. B. Schlegel, G. E. Scuseria, 
 M. A. Robb, J. R. Cheeseman, G. Scalmani, V. Barone, B. Mennucci, 
 G. A. Petersson, H. Nakatsuji, M. Caricato, X. Li, H. P. Hratchian, 
 A. F. Izmaylov, J. Bloino, G. Zheng, J. L. Sonnenberg, M. Hada, 
 M. Ehara, K. Toyota, R. Fukuda, J. Hasegawa, M. Ishida, T. Nakajima, 
 Y. Honda, O. Kitao, H. Nakai, T. Vreven, J. A. Montgomery, Jr., 
 J. E. Peralta, F. Ogliaro, M. Bearpark, J. J. Heyd, E. Brothers, 
 K. N. Kudin, V. N. Staroverov, T. Keith, R. Kobayashi, J. Normand, 
 K. Raghavachari, A. Rendell, J. C. Burant, S. S. Iyengar, J. Tomasi, 
 M. Cossi, N. Rega, J. M. Millam, M. Klene, J. E. Knox, J. B. Cross, 
 V. Bakken, C. Adamo, J. Jaramillo, R. Gomperts, R. E. Stratmann, 
 O. Yazyev, A. J. Austin, R. Cammi, C. Pomelli, J. W. Ochterski, 
 R. L. Martin, K. Morokuma, V. G. Zakrzewski, G. A. Voth, 
 P. Salvador, J. J. Dannenberg, S. Dapprich, A. D. Daniels, 
 O. Farkas, J. B. Foresman, J. V. Ortiz, J. Cioslowski, 
 and D. J. Fox, Gaussian, Inc., Wallingford CT, 2013.
 
 ******************************************
 Gaussian 09:  EM64L-G09RevE.01 30-Nov-2015
                24-Mar-2021 
 ******************************************
 %nprocshared=16
 Will use up to   16 processors via shared memory.
 %mem=10GB
 ----------------------------------------------------
 # opt=(tight,modredundant) freq apfd/6-31g(d) nosymm
 ----------------------------------------------------
 1/7=10,14=-1,18=120,19=15,26=3,38=1/1,3;
 2/9=110,12=2,15=1,17=6,18=5,40=1/2;
 3/5=1,6=6,7=1,11=2,16=1,25=1,30=1,71=1,74=-44/1,2,3;
 4//1;
 5/5=2,38=5/2;
 6/7=2,8=2,9=2,10=2,28=1/1;
 7/30=1/1,2,3,16;
 1/7=10,14=-1,18=20,19=15,26=3/3(2);
 2/9=110,15=1/2;
 99//99;
 2/9=110,15=1/2;
 3/5=1,6=6,7=1,11=2,16=1,25=1,30=1,71=1,74=-44/1,2,3;
 4/5=5,16=3,69=1/1;
 5/5=2,38=5/2;
 7/30=1/1,2,3,16;
 1/7=10,14=-1,18=20,19=15,26=3/3(-5);
 2/9=110,15=1/2;
 6/7=2,8=2,9=2,10=2,19=2,28=1/1;
 99/9=1/99;
 -------------------
 Title Card Required
 -------------------
 Symbolic Z-matrix:
 Charge =  0 Multiplicity = 1
 C                    -1.41905   2.94688   1.08695 
 C                    -2.6866    1.10451   2.81978 
 C                    -3.09079   2.38344   2.7638 
 N                    -2.47625   3.2731    1.92922 
 H                    -3.16421   0.39039   3.47657 
 H                    -3.90546   2.77547   3.36138 
 O                    -0.91613   3.78128   0.36962 
 N                    -1.01241   1.61787   1.15119 
 C                    -1.58597   0.66229   1.9786 
 N                    -1.11911  -0.54105   1.96421 
 H                    -0.07041  -1.34341   1.11036 
 H                    -1.62927  -1.14128   2.60764 
 H                    -2.76758   4.23886   1.87017 
 P                    -0.22184  -2.44356  -0.76747 
 O                    -0.81444  -1.46691  -1.69925 
 O                     0.52486  -1.9579    0.52631 
 O                    -1.32465  -3.46971  -0.17521 
 O                     0.89746  -3.355    -1.47091 
 H                    -2.07515  -3.51646  -0.78746 
 H                     1.43315  -3.82349  -0.8123 
 S                     2.97771   1.20455  -1.95944 
 C                     2.4106   -0.51707  -1.95838 
 H                     3.06083  -1.14442  -2.5738 
 H                     2.37499  -0.91133  -0.93866 
 H                     1.39947  -0.54227  -2.37122 
 C                     4.59083   0.95359  -1.17258 
 H                     5.07622   1.92774  -1.08852 
 H                     4.47565   0.52803  -0.17204 
 H                     5.22169   0.29623  -1.77681 
 C                     0.08543   1.20999   0.26602 
 H                     0.44978   2.095    -0.2477 
 H                    -0.27684   0.47165  -0.45586 
 H                     0.8872    0.77019   0.86407 
 
 Add virtual bond connecting atoms H11        and N10        Dist= 2.97D+00.
 Add virtual bond connecting atoms H24        and O16        Dist= 4.88D+00.
 Add virtual bond connecting atoms H25        and O15        Dist= 4.71D+00.
 The following ModRedundant input section has been read:
 A       8      30      21 F                                                   
 

 GradGradGradGradGradGradGradGradGradGradGradGradGradGradGradGradGradGrad
 Berny optimization.
 Initialization pass.
                           ----------------------------
                           !    Initial Parameters    !
                           ! (Angstroms and Degrees)  !
 --------------------------                            --------------------------
 ! Name  Definition              Value          Derivative Info.                !
 --------------------------------------------------------------------------------
 ! R1    R(1,4)                  1.3905         estimate D2E/DX2                !
 ! R2    R(1,7)                  1.2098         estimate D2E/DX2                !
 ! R3    R(1,8)                  1.3913         estimate D2E/DX2                !
 ! R4    R(2,3)                  1.3424         estimate D2E/DX2                !
 ! R5    R(2,5)                  1.0814         estimate D2E/DX2                !
 ! R6    R(2,9)                  1.4541         estimate D2E/DX2                !
 ! R7    R(3,4)                  1.3659         estimate D2E/DX2                !
 ! R8    R(3,6)                  1.0837         estimate D2E/DX2                !
 ! R9    R(4,13)                 1.0105         estimate D2E/DX2                !
 ! R10   R(8,9)                  1.3881         estimate D2E/DX2                !
 ! R11   R(8,30)                 1.468          estimate D2E/DX2                !
 ! R12   R(9,10)                 1.2908         estimate D2E/DX2                !
 ! R13   R(10,11)                1.5725         estimate D2E/DX2                !
 ! R14   R(10,12)                1.0171         estimate D2E/DX2                !
 ! R15   R(11,16)                1.0359         estimate D2E/DX2                !
 ! R16   R(14,15)                1.4742         estimate D2E/DX2                !
 ! R17   R(14,16)                1.5708         estimate D2E/DX2                !
 ! R18   R(14,17)                1.6186         estimate D2E/DX2                !
 ! R19   R(14,18)                1.6057         estimate D2E/DX2                !
 ! R20   R(15,25)                2.4916         estimate D2E/DX2                !
 ! R21   R(16,24)                2.5816         estimate D2E/DX2                !
 ! R22   R(17,19)                0.9697         estimate D2E/DX2                !
 ! R23   R(18,20)                0.9696         estimate D2E/DX2                !
 ! R24   R(21,22)                1.8126         estimate D2E/DX2                !
 ! R25   R(21,26)                1.8123         estimate D2E/DX2                !
 ! R26   R(22,23)                1.0932         estimate D2E/DX2                !
 ! R27   R(22,24)                1.0939         estimate D2E/DX2                !
 ! R28   R(22,25)                1.0925         estimate D2E/DX2                !
 ! R29   R(26,27)                1.0916         estimate D2E/DX2                !
 ! R30   R(26,28)                1.0934         estimate D2E/DX2                !
 ! R31   R(26,29)                1.0932         estimate D2E/DX2                !
 ! R32   R(30,31)                1.0862         estimate D2E/DX2                !
 ! R33   R(30,32)                1.0943         estimate D2E/DX2                !
 ! R34   R(30,33)                1.0927         estimate D2E/DX2                !
 ! A1    A(4,1,7)              120.8902         estimate D2E/DX2                !
 ! A2    A(4,1,8)              114.7302         estimate D2E/DX2                !
 ! A3    A(7,1,8)              124.3796         estimate D2E/DX2                !
 ! A4    A(3,2,5)              121.4303         estimate D2E/DX2                !
 ! A5    A(3,2,9)              119.5705         estimate D2E/DX2                !
 ! A6    A(5,2,9)              118.999          estimate D2E/DX2                !
 ! A7    A(2,3,4)              120.6993         estimate D2E/DX2                !
 ! A8    A(2,3,6)              123.2275         estimate D2E/DX2                !
 ! A9    A(4,3,6)              116.0731         estimate D2E/DX2                !
 ! A10   A(1,4,3)              124.0122         estimate D2E/DX2                !
 ! A11   A(1,4,13)             114.0811         estimate D2E/DX2                !
 ! A12   A(3,4,13)             121.9048         estimate D2E/DX2                !
 ! A13   A(1,8,9)              124.3573         estimate D2E/DX2                !
 ! A14   A(1,8,30)             117.1372         estimate D2E/DX2                !
 ! A15   A(9,8,30)             118.5001         estimate D2E/DX2                !
 ! A16   A(2,9,8)              116.6295         estimate D2E/DX2                !
 ! A17   A(2,9,10)             124.3125         estimate D2E/DX2                !
 ! A18   A(8,9,10)             119.0571         estimate D2E/DX2                !
 ! A19   A(9,10,11)            136.2984         estimate D2E/DX2                !
 ! A20   A(9,10,12)            111.2035         estimate D2E/DX2                !
 ! A21   A(11,10,12)           112.1409         estimate D2E/DX2                !
 ! A22   A(15,14,16)           120.455          estimate D2E/DX2                !
 ! A23   A(15,14,17)           112.1721         estimate D2E/DX2                !
 ! A24   A(15,14,18)           112.2939         estimate D2E/DX2                !
 ! A25   A(16,14,17)           102.6222         estimate D2E/DX2                !
 ! A26   A(16,14,18)           101.8274         estimate D2E/DX2                !
 ! A27   A(17,14,18)           105.9846         estimate D2E/DX2                !
 ! A28   A(14,15,25)            93.3902         estimate D2E/DX2                !
 ! A29   A(11,16,14)           112.0013         estimate D2E/DX2                !
 ! A30   A(11,16,24)           119.4262         estimate D2E/DX2                !
 ! A31   A(14,16,24)            89.9212         estimate D2E/DX2                !
 ! A32   A(14,17,19)           109.0782         estimate D2E/DX2                !
 ! A33   A(14,18,20)           111.2101         estimate D2E/DX2                !
 ! A34   A(22,21,26)            98.4365         estimate D2E/DX2                !
 ! A35   A(21,22,23)           111.016          estimate D2E/DX2                !
 ! A36   A(21,22,24)           110.675          estimate D2E/DX2                !
 ! A37   A(21,22,25)           108.136          estimate D2E/DX2                !
 ! A38   A(23,22,24)           109.7134         estimate D2E/DX2                !
 ! A39   A(23,22,25)           108.9374         estimate D2E/DX2                !
 ! A40   A(24,22,25)           108.2906         estimate D2E/DX2                !
 ! A41   A(16,24,22)           134.3038         estimate D2E/DX2                !
 ! A42   A(15,25,22)           136.8078         estimate D2E/DX2                !
 ! A43   A(21,26,27)           107.7971         estimate D2E/DX2                !
 ! A44   A(21,26,28)           110.9435         estimate D2E/DX2                !
 ! A45   A(21,26,29)           110.9122         estimate D2E/DX2                !
 ! A46   A(27,26,28)           108.887          estimate D2E/DX2                !
 ! A47   A(27,26,29)           108.8182         estimate D2E/DX2                !
 ! A48   A(28,26,29)           109.4222         estimate D2E/DX2                !
 ! A49   A(8,30,21)            163.9029         Frozen                          !
 ! A50   A(8,30,31)            108.0372         estimate D2E/DX2                !
 ! A51   A(8,30,32)            109.734          estimate D2E/DX2                !
 ! A52   A(8,30,33)            109.3021         estimate D2E/DX2                !
 ! A53   A(31,30,32)           110.4133         estimate D2E/DX2                !
 ! A54   A(31,30,33)           109.9168         estimate D2E/DX2                !
 ! A55   A(32,30,33)           109.4143         estimate D2E/DX2                !
 ! A56   L(10,11,16,19,-1)     173.1071         estimate D2E/DX2                !
 ! A57   L(10,11,16,19,-2)     182.2176         estimate D2E/DX2                !
 ! D1    D(7,1,4,3)            179.986          estimate D2E/DX2                !
 ! D2    D(7,1,4,13)             0.4905         estimate D2E/DX2                !
 ! D3    D(8,1,4,3)             -0.1158         estimate D2E/DX2                !
 ! D4    D(8,1,4,13)          -179.6114         estimate D2E/DX2                !
 ! D5    D(4,1,8,9)             -0.1862         estimate D2E/DX2                !
 ! D6    D(4,1,8,30)           178.9578         estimate D2E/DX2                !
 ! D7    D(7,1,8,9)            179.7079         estimate D2E/DX2                !
 ! D8    D(7,1,8,30)            -1.1481         estimate D2E/DX2                !
 ! D9    D(5,2,3,4)            179.9634         estimate D2E/DX2                !
 ! D10   D(5,2,3,6)              0.0159         estimate D2E/DX2                !
 ! D11   D(9,2,3,4)             -0.2306         estimate D2E/DX2                !
 ! D12   D(9,2,3,6)            179.8218         estimate D2E/DX2                !
 ! D13   D(3,2,9,8)             -0.0489         estimate D2E/DX2                !
 ! D14   D(3,2,9,10)           179.5931         estimate D2E/DX2                !
 ! D15   D(5,2,9,8)            179.7617         estimate D2E/DX2                !
 ! D16   D(5,2,9,10)            -0.5963         estimate D2E/DX2                !
 ! D17   D(2,3,4,1)              0.3266         estimate D2E/DX2                !
 ! D18   D(2,3,4,13)           179.784          estimate D2E/DX2                !
 ! D19   D(6,3,4,1)           -179.7223         estimate D2E/DX2                !
 ! D20   D(6,3,4,13)            -0.2648         estimate D2E/DX2                !
 ! D21   D(1,8,9,2)              0.2653         estimate D2E/DX2                !
 ! D22   D(1,8,9,10)          -179.3965         estimate D2E/DX2                !
 ! D23   D(30,8,9,2)          -178.8679         estimate D2E/DX2                !
 ! D24   D(30,8,9,10)            1.4704         estimate D2E/DX2                !
 ! D25   D(1,8,30,31)            4.7304         estimate D2E/DX2                !
 ! D26   D(1,8,30,32)         -115.7017         estimate D2E/DX2                !
 ! D27   D(1,8,30,33)          124.3112         estimate D2E/DX2                !
 ! D28   D(9,8,30,31)         -176.0737         estimate D2E/DX2                !
 ! D29   D(9,8,30,32)           63.4942         estimate D2E/DX2                !
 ! D30   D(9,8,30,33)          -56.493          estimate D2E/DX2                !
 ! D31   D(2,9,10,11)          173.1075         estimate D2E/DX2                !
 ! D32   D(2,9,10,12)            0.78           estimate D2E/DX2                !
 ! D33   D(8,9,10,11)           -7.2586         estimate D2E/DX2                !
 ! D34   D(8,9,10,12)         -179.5861         estimate D2E/DX2                !
 ! D35   D(9,10,16,14)         -79.6366         estimate D2E/DX2                !
 ! D36   D(9,10,16,24)          23.0913         estimate D2E/DX2                !
 ! D37   D(12,10,16,14)         89.2732         estimate D2E/DX2                !
 ! D38   D(12,10,16,24)       -167.9989         estimate D2E/DX2                !
 ! D39   D(16,14,15,25)         66.366          estimate D2E/DX2                !
 ! D40   D(17,14,15,25)       -172.7462         estimate D2E/DX2                !
 ! D41   D(18,14,15,25)        -53.5055         estimate D2E/DX2                !
 ! D42   D(15,14,16,11)         55.0799         estimate D2E/DX2                !
 ! D43   D(15,14,16,24)        -66.8807         estimate D2E/DX2                !
 ! D44   D(17,14,16,11)        -70.3922         estimate D2E/DX2                !
 ! D45   D(17,14,16,24)        167.6472         estimate D2E/DX2                !
 ! D46   D(18,14,16,11)       -179.9777         estimate D2E/DX2                !
 ! D47   D(18,14,16,24)         58.0617         estimate D2E/DX2                !
 ! D48   D(15,14,17,19)         23.6614         estimate D2E/DX2                !
 ! D49   D(16,14,17,19)        154.3652         estimate D2E/DX2                !
 ! D50   D(18,14,17,19)        -99.2172         estimate D2E/DX2                !
 ! D51   D(15,14,18,20)        165.2729         estimate D2E/DX2                !
 ! D52   D(16,14,18,20)         35.0658         estimate D2E/DX2                !
 ! D53   D(17,14,18,20)        -71.9255         estimate D2E/DX2                !
 ! D54   D(14,15,25,22)        -20.7946         estimate D2E/DX2                !
 ! D55   D(11,16,24,22)        -88.836          estimate D2E/DX2                !
 ! D56   D(14,16,24,22)         26.5898         estimate D2E/DX2                !
 ! D57   D(26,21,22,23)        -63.1472         estimate D2E/DX2                !
 ! D58   D(26,21,22,24)         58.9397         estimate D2E/DX2                !
 ! D59   D(26,21,22,25)        177.4021         estimate D2E/DX2                !
 ! D60   D(22,21,26,27)       -179.586          estimate D2E/DX2                !
 ! D61   D(22,21,26,28)        -60.4501         estimate D2E/DX2                !
 ! D62   D(22,21,26,29)         61.38           estimate D2E/DX2                !
 ! D63   D(21,22,24,16)        122.8303         estimate D2E/DX2                !
 ! D64   D(23,22,24,16)       -114.3227         estimate D2E/DX2                !
 ! D65   D(25,22,24,16)          4.4619         estimate D2E/DX2                !
 ! D66   D(21,22,25,15)       -128.3637         estimate D2E/DX2                !
 ! D67   D(23,22,25,15)        110.8822         estimate D2E/DX2                !
 ! D68   D(24,22,25,15)         -8.3928         estimate D2E/DX2                !
 --------------------------------------------------------------------------------
 Trust Radius=3.00D-01 FncErr=1.00D-07 GrdErr=1.00D-06
 Number of steps in this run=    169 maximum allowed number of steps=    198.
 GradGradGradGradGradGradGradGradGradGradGradGradGradGradGradGradGradGrad

                          Input orientation:                          
 ---------------------------------------------------------------------
 Center     Atomic      Atomic             Coordinates (Angstroms)
 Number     Number       Type             X           Y           Z
 ---------------------------------------------------------------------
      1          6           0       -1.419052    2.946882    1.086953
      2          6           0       -2.686599    1.104513    2.819775
      3          6           0       -3.090790    2.383441    2.763801
      4          7           0       -2.476247    3.273104    1.929222
      5          1           0       -3.164210    0.390394    3.476567
      6          1           0       -3.905458    2.775469    3.361384
      7          8           0       -0.916125    3.781281    0.369621
      8          7           0       -1.012413    1.617865    1.151192
      9          6           0       -1.585972    0.662292    1.978603
     10          7           0       -1.119114   -0.541047    1.964213
     11          1           0       -0.070413   -1.343413    1.110361
     12          1           0       -1.629265   -1.141276    2.607637
     13          1           0       -2.767576    4.238858    1.870169
     14         15           0       -0.221839   -2.443564   -0.767465
     15          8           0       -0.814443   -1.466906   -1.699249
     16          8           0        0.524862   -1.957904    0.526313
     17          8           0       -1.324652   -3.469712   -0.175211
     18          8           0        0.897462   -3.354999   -1.470910
     19          1           0       -2.075151   -3.516458   -0.787462
     20          1           0        1.433154   -3.823489   -0.812301
     21         16           0        2.977712    1.204545   -1.959438
     22          6           0        2.410599   -0.517067   -1.958380
     23          1           0        3.060830   -1.144418   -2.573803
     24          1           0        2.374989   -0.911333   -0.938659
     25          1           0        1.399468   -0.542273   -2.371217
     26          6           0        4.590834    0.953588   -1.172583
     27          1           0        5.076216    1.927739   -1.088515
     28          1           0        4.475648    0.528030   -0.172040
     29          1           0        5.221692    0.296230   -1.776810
     30          6           0        0.085425    1.209988    0.266019
     31          1           0        0.449782    2.095000   -0.247695
     32          1           0       -0.276837    0.471653   -0.455856
     33          1           0        0.887202    0.770186    0.864068
 ---------------------------------------------------------------------
                    Distance matrix (angstroms):
                    1          2          3          4          5
     1  C    0.000000
     2  C    2.829076   0.000000
     3  C    2.433925   1.342446   0.000000
     4  N    1.390503   2.353746   1.365901   0.000000
     5  H    3.910430   1.081413   2.117938   3.343290   0.000000
     6  H    3.374112   2.138002   1.083732   2.083596   2.500260
     7  O    1.209844   4.037687   3.523524   2.263753   5.119093
     8  N    1.391319   2.418801   2.739756   2.342639   3.397688
     9  C    2.458100   1.454135   2.417306   2.758871   2.192866
    10  N    3.609044   2.428346   3.616556   4.048553   2.708729
    11  H    4.497333   3.969744   5.074050   5.269801   4.263402
    12  H    4.366887   2.491290   3.818910   4.545809   2.336045
    13  H    2.025129   3.276038   2.084615   1.010466   4.189094
    14  P    5.824869   5.615352   6.633302   6.710795   5.890728
    15  O    5.254522   5.526187   6.318682   6.196377   5.979970
    16  O    5.305662   4.995182   6.076723   6.191789   5.275202
    17  O    6.540233   5.634570   6.783541   7.156841   5.623155
    18  O    7.184887   7.151414   8.171207   8.177687   7.416379
    19  H    6.761558   5.894014   6.960733   7.323893   5.884852
    20  H    7.588160   7.378993   8.472341   8.553420   7.568815
    21  S    5.625635   7.411835   7.779814   7.010441   8.242342
    22  C    5.994933   7.172288   7.808791   7.304800   7.838407
    23  H    7.085846   8.196421   8.875710   8.393507   8.815540
    24  H    5.777861   6.618847   7.378244   7.019170   7.202183
    25  H    5.663673   6.808395   7.422306   6.933401   7.476202
    26  C    6.722905   8.301972   8.749111   8.058845   9.059387
    27  H    6.925303   8.730047   9.041459   8.243570   9.545052
    28  H    6.494875   7.783384   8.325425   7.763992   8.467509
    29  H    7.702375   9.182755   9.699018   9.047360   9.895968
    30  C    2.440120   3.770532   4.207642   3.685764   4.641065
    31  H    2.449394   4.497480   4.657033   3.832563   5.462302
    32  H    3.132359   4.115486   4.683957   4.286505   4.879291
    33  H    3.179071   4.087618   4.694252   4.325730   4.835632
                    6          7          8          9         10
     6  H    0.000000
     7  O    4.347231   0.000000
     8  N    3.820302   2.302280   0.000000
     9  C    3.428938   3.572899   1.388056   0.000000
    10  N    4.551382   4.611556   2.309392   1.290809   0.000000
    11  H    6.061342   5.246562   3.107764   2.659627   1.572459
    12  H    4.592394   5.454251   3.180345   1.910606   1.017115
    13  H    2.379076   2.426704   3.235294   3.768258   5.057051
    14  P    7.606231   6.365822   4.560861   4.364412   3.447715
    15  O    7.291236   5.642165   4.204761   4.319182   3.790909
    16  O    7.076029   5.919395   3.942057   3.664723   2.603401
    17  O    7.626949   7.282900   5.266904   4.666975   3.632693
    18  O    9.165247   7.589674   5.937375   5.848522   4.876984
    19  H    7.755726   7.479250   5.590086   5.035113   4.163988
    20  H    9.458682   8.046650   6.280481   6.084940   4.999753
    21  S    8.840644   5.217859   5.076214   6.052224   5.935159
    22  C    8.890065   5.912908   5.093563   5.732652   5.276948
    23  H    9.955959   6.981578   6.172285   6.751398   6.199159
    24  H    8.457357   5.879086   4.715804   5.164874   4.557689
    25  H    8.486010   5.618477   4.784426   5.411540   5.013902
    26  C    9.801178   6.379721   6.102260   6.940300   6.684080
    27  H   10.059360   6.439715   6.494899   7.442669   7.334587
    28  H    9.369045   6.320463   5.749565   6.433236   6.083409
    29  H   10.763481   7.377367   7.013129   7.783407   7.409596
    30  C    5.287642   2.761410   1.468041   2.454890   2.720460
    31  H    5.697070   2.256175   2.079076   3.339663   3.781893
    32  H    5.748546   3.470409   2.106532   2.770698   2.755309
    33  H    5.764316   3.544455   2.099890   2.714852   2.637225
                   11         12         13         14         15
    11  H    0.000000
    12  H    2.170879   0.000000
    13  H    6.246098   5.548464   0.000000
    14  P    2.181626   3.881767   7.621854   0.000000
    15  O    2.909079   4.395365   7.007940   1.474199   0.000000
    16  O    1.035888   3.104683   7.144645   1.570761   2.643472
    17  O    2.783336   3.641242   8.104792   1.618623   2.567925
    18  O    3.412656   5.283887   9.069839   1.605735   2.558838
    19  H    3.513237   4.167373   8.227234   2.141557   2.573209
    20  H    3.479672   5.316827   9.478566   2.155274   3.375182
    21  S    5.020640   6.898209   7.541968   4.996661   4.645943
    22  C    4.031804   6.128511   8.005630   3.472665   3.371978
    23  H    4.839147   6.988871   9.093892   3.965672   3.985798
    24  H    3.219498   5.353797   7.801279   3.020026   3.325603
    25  H    3.863128   5.858414   7.629733   2.969102   2.491564
    26  C    5.675850   7.574177   8.613799   5.904793   5.945855
    27  H    6.482537   8.248871   8.695985   6.876100   6.826161
    28  H    5.080701   6.912536   8.390778   5.590285   5.856381
    29  H    6.247444   8.259867   9.626691   6.177158   6.288846
    30  C    2.693892   3.735208   4.459480   3.809323   3.440611
    31  H    3.733310   4.790495   4.408273   4.617337   4.048759
    32  H    2.406265   3.716933   5.079961   2.932340   2.364965
    33  H    2.333450   3.609200   5.138222   3.770950   3.804047
                   16         17         18         19         20
    16  O    0.000000
    17  O    2.489659   0.000000
    18  O    2.465685   2.574837   0.000000
    19  H    3.303810   0.969683   3.054439   0.000000
    20  H    2.469269   2.852461   0.969647   3.521802   0.000000
    21  S    4.711318   6.598673   5.035429   7.013759   5.383559
    22  C    3.435944   5.084280   3.252855   5.521716   3.633362
    23  H    4.087005   5.512956   3.283779   5.932612   3.595781
    24  H    2.581555   4.562401   2.904803   5.158806   3.063278
    25  H    3.341351   4.562145   2.995662   4.840148   3.632868
    26  C    5.281587   7.453409   5.682774   8.035234   5.737701
    27  H    6.198445   8.422453   6.746520   8.992884   6.813576
    28  H    4.719775   7.044532   5.437683   7.723315   5.348123
    29  H    5.696113   7.720237   5.667805   8.292124   5.679382
    30  C    3.208800   4.907402   4.951306   5.302566   5.321188
    31  H    4.126834   5.841223   5.603495   6.176981   6.026136
    32  H    2.740461   4.087913   4.129477   4.387360   4.636741
    33  H    2.772696   4.893785   4.740188   5.466114   4.920379
                   21         22         23         24         25
    21  S    0.000000
    22  C    1.812613   0.000000
    23  H    2.429399   1.093213   0.000000
    24  H    2.425326   1.093867   1.788408   0.000000
    25  H    2.389935   1.092454   1.778691   1.772024   0.000000
    26  C    1.812259   2.744764   2.950586   2.905619   3.722787
    27  H    2.384373   3.720115   3.963081   3.921660   4.611373
    28  H    2.428225   2.923639   3.250732   2.659368   3.929989
    29  H    2.427722   2.932007   2.716614   3.203814   3.958005
    30  C    3.649385   3.652000   4.739288   3.345647   3.428140
    31  H    3.180158   3.687023   4.766779   3.636192   3.516598
    32  H    3.659232   3.233799   4.270528   3.029510   2.739827
    33  H    3.539927   3.456005   4.495478   2.879382   3.528744
                   26         27         28         29         30
    26  C    0.000000
    27  H    1.091620   0.000000
    28  H    1.093368   1.777581   0.000000
    29  H    1.093248   1.776720   1.784825   0.000000
    30  C    4.736457   5.220912   4.464417   5.602619   0.000000
    31  H    4.393922   4.705194   4.320731   5.323992   1.086234
    32  H    4.943701   5.583513   4.761286   5.657695   1.094292
    33  H    4.230659   4.764488   3.742874   5.097713   1.092673
                   31         32         33
    31  H    0.000000
    32  H    1.790687   0.000000
    33  H    1.783952   1.785023   0.000000
 Symmetry turned off by external request.
 Stoichiometry    C7H16N3O5PS
 Framework group  C1[X(C7H16N3O5PS)]
 Deg. of freedom    93
 Full point group                 C1      NOp   1
 Rotational constants (GHZ):      0.3812784      0.2366589      0.1597477
 Standard basis: 6-31G(d) (6D, 7F)
   295 basis functions,   588 primitive gaussians,   295 cartesian basis functions
    75 alpha electrons       75 beta electrons
       nuclear repulsion energy      1575.8094879935 Hartrees.
 NAtoms=   33 NActive=   33 NUniq=   33 SFac= 1.00D+00 NAtFMM=   60 NAOKFM=F Big=F
 Integral buffers will be    131072 words long.
 Raffenetti 2 integral format.
 Two-electron integral symmetry is turned off.
 R6APFD:  NTU= -4 IXU= 1 FactS= 1.050
 Nuclear repulsion after empirical dispersion term =     1575.7772219202 Hartrees.
 One-electron integrals computed using PRISM.
 NBasis=   295 RedAO= T EigKep=  1.08D-03  NBF=   295
 NBsUse=   295 1.00D-06 EigRej= -1.00D+00 NBFU=   295
 ExpMin= 9.98D-02 ExpMax= 2.19D+04 ExpMxC= 3.30D+03 IAcc=2 IRadAn=         4 AccDes= 0.00D+00
 Harris functional with IExCor= 3731 and IRadAn=       4 diagonalized for initial guess.
 HarFok:  IExCor= 3731 AccDes= 0.00D+00 IRadAn=         4 IDoV= 1 UseB2=F ITyADJ=14
 ICtDFT=  3500011 ScaDFX=  1.000000  1.000000  1.000000  1.000000
 FoFCou: FMM=F IPFlag=           0 FMFlag=      100000 FMFlg1=           0
         NFxFlg=           0 DoJE=T BraDBF=F KetDBF=T FulRan=T
         wScrn=  0.000000 ICntrl=     500 IOpCl=  0 I1Cent=   200000004 NGrid=           0
         NMat0=    1 NMatS0=      1 NMatT0=    0 NMatD0=    1 NMtDS0=    0 NMtDT0=    0
 Symmetry not used in FoFCou.
 Keep R1 ints in memory in canonical form, NReq=966372831.
 Requested convergence on RMS density matrix=1.00D-08 within 128 cycles.
 Requested convergence on MAX density matrix=1.00D-06.
 Requested convergence on             energy=1.00D-06.
 No special actions if energy rises.
 Integral accuracy reduced to 1.0D-05 until final iterations.
 Initial convergence to 1.0D-05 achieved.  Increase integral accuracy.
 SCF Done:  E(RAPFD) =  -1555.56823383     A.U. after   14 cycles
            NFock= 14  Conv=0.98D-08     -V/T= 2.0061

 **********************************************************************

            Population analysis using the SCF density.

 **********************************************************************

 Alpha  occ. eigenvalues --  -88.93464 -77.29190 -19.21281 -19.21255 -19.18898
 Alpha  occ. eigenvalues --  -19.17619 -19.13515 -14.44910 -14.44055 -14.36887
 Alpha  occ. eigenvalues --  -10.36471 -10.32254 -10.30262 -10.24483 -10.22549
 Alpha  occ. eigenvalues --  -10.21705 -10.20254  -7.95061  -6.69892  -5.89859
 Alpha  occ. eigenvalues --   -5.89482  -5.88773  -4.84617  -4.84572  -4.84403
 Alpha  occ. eigenvalues --   -1.10457  -1.10063  -1.04051  -1.02292  -1.01832
 Alpha  occ. eigenvalues --   -0.99044  -0.96311  -0.91779  -0.82137  -0.79269
 Alpha  occ. eigenvalues --   -0.75032  -0.69805  -0.69104  -0.67197  -0.63316
 Alpha  occ. eigenvalues --   -0.60300  -0.58906  -0.58298  -0.56261  -0.54998
 Alpha  occ. eigenvalues --   -0.51885  -0.50648  -0.50007  -0.47634  -0.45923
 Alpha  occ. eigenvalues --   -0.45426  -0.44307  -0.43810  -0.43155  -0.42898
 Alpha  occ. eigenvalues --   -0.42827  -0.41123  -0.40269  -0.39876  -0.39676
 Alpha  occ. eigenvalues --   -0.39318  -0.37697  -0.36999  -0.36766  -0.35362
 Alpha  occ. eigenvalues --   -0.34139  -0.32746  -0.31045  -0.30081  -0.29849
 Alpha  occ. eigenvalues --   -0.29071  -0.28390  -0.27497  -0.25781  -0.20677
 Alpha virt. eigenvalues --   -0.04514   0.00789   0.05564   0.06037   0.07191
 Alpha virt. eigenvalues --    0.09880   0.10393   0.11038   0.11470   0.11638
 Alpha virt. eigenvalues --    0.12105   0.14822   0.15262   0.15593   0.16396
 Alpha virt. eigenvalues --    0.16917   0.17255   0.18412   0.19209   0.19749
 Alpha virt. eigenvalues --    0.20027   0.20983   0.21288   0.21984   0.22699
 Alpha virt. eigenvalues --    0.23064   0.24265   0.27479   0.28907   0.30642
 Alpha virt. eigenvalues --    0.33634   0.34708   0.37255   0.38291   0.39417
 Alpha virt. eigenvalues --    0.41297   0.41405   0.41912   0.43844   0.45380
 Alpha virt. eigenvalues --    0.46245   0.47039   0.48502   0.49652   0.51804
 Alpha virt. eigenvalues --    0.54015   0.54275   0.54794   0.55930   0.58174
 Alpha virt. eigenvalues --    0.59146   0.59726   0.59973   0.60773   0.61683
 Alpha virt. eigenvalues --    0.62670   0.64494   0.64999   0.67049   0.67421
 Alpha virt. eigenvalues --    0.69034   0.73012   0.73790   0.77606   0.78655
 Alpha virt. eigenvalues --    0.78915   0.79582   0.81326   0.81905   0.82461
 Alpha virt. eigenvalues --    0.82856   0.83170   0.84193   0.85016   0.86372
 Alpha virt. eigenvalues --    0.86736   0.87470   0.88015   0.89142   0.89585
 Alpha virt. eigenvalues --    0.90920   0.91104   0.92911   0.93462   0.94538
 Alpha virt. eigenvalues --    0.94812   0.95234   0.95684   0.96483   0.97006
 Alpha virt. eigenvalues --    0.98511   0.99160   0.99825   1.00771   1.01911
 Alpha virt. eigenvalues --    1.02714   1.04584   1.05269   1.06777   1.07575
 Alpha virt. eigenvalues --    1.08595   1.09197   1.11905   1.13346   1.14650
 Alpha virt. eigenvalues --    1.17008   1.18241   1.19011   1.20526   1.22555
 Alpha virt. eigenvalues --    1.23028   1.25621   1.27385   1.28548   1.29861
 Alpha virt. eigenvalues --    1.30312   1.32426   1.33639   1.34782   1.36301
 Alpha virt. eigenvalues --    1.38153   1.38895   1.40810   1.43638   1.43782
 Alpha virt. eigenvalues --    1.45154   1.46759   1.49004   1.51562   1.58877
 Alpha virt. eigenvalues --    1.60209   1.66231   1.67372   1.70053   1.70359
 Alpha virt. eigenvalues --    1.71417   1.72250   1.72956   1.73652   1.73909
 Alpha virt. eigenvalues --    1.74754   1.76073   1.76521   1.77411   1.78623
 Alpha virt. eigenvalues --    1.79548   1.81628   1.84305   1.84614   1.85066
 Alpha virt. eigenvalues --    1.85770   1.87263   1.90523   1.91322   1.94056
 Alpha virt. eigenvalues --    1.96592   1.99906   2.03762   2.04230   2.07970
 Alpha virt. eigenvalues --    2.08988   2.10083   2.12127   2.14397   2.14843
 Alpha virt. eigenvalues --    2.16407   2.17106   2.19776   2.23381   2.23964
 Alpha virt. eigenvalues --    2.24539   2.24963   2.26290   2.27226   2.28141
 Alpha virt. eigenvalues --    2.28654   2.31528   2.33818   2.34166   2.38572
 Alpha virt. eigenvalues --    2.40303   2.40881   2.42321   2.46779   2.50369
 Alpha virt. eigenvalues --    2.55376   2.56476   2.59143   2.63286   2.64588
 Alpha virt. eigenvalues --    2.66960   2.68531   2.69892   2.71861   2.77455
 Alpha virt. eigenvalues --    2.80423   2.84004   2.88059   2.91451   2.97500
 Alpha virt. eigenvalues --    2.99896   3.23512   3.42427   3.51968   3.70004
 Alpha virt. eigenvalues --    3.79136   3.92551   3.94842   3.96476   3.98902
 Alpha virt. eigenvalues --    4.03726   4.12832   4.16512   4.23989   4.24254
 Alpha virt. eigenvalues --    4.27138   4.30603   4.38022   4.54111   4.65028
          Condensed to atoms (all electrons):
               1          2          3          4          5          6
     1  C    4.121240  -0.013775  -0.028190   0.265468   0.000388   0.002198
     2  C   -0.013775   5.112576   0.569447  -0.031878   0.369332  -0.026273
     3  C   -0.028190   0.569447   4.773173   0.293123  -0.034254   0.369125
     4  N    0.265468  -0.031878   0.293123   7.120124   0.003410  -0.043294
     5  H    0.000388   0.369332  -0.034254   0.003410   0.494558  -0.003310
     6  H    0.002198  -0.026273   0.369125  -0.043294  -0.003310   0.488805
     7  O    0.628946   0.000586   0.002305  -0.090924   0.000003  -0.000095
     8  N    0.264127  -0.056198  -0.010755  -0.103895   0.003548  -0.000379
     9  C   -0.023440   0.452289  -0.027195  -0.017065  -0.026196   0.002787
    10  N    0.000788  -0.077641   0.007032   0.000205  -0.006100  -0.000128
    11  H    0.000002   0.000910  -0.000032  -0.000001  -0.000012   0.000000
    12  H   -0.000029  -0.008426   0.000910   0.000019   0.004186  -0.000013
    13  H   -0.011326   0.003124  -0.022590   0.303801  -0.000118  -0.004582
    14  P   -0.000002  -0.000070  -0.000002   0.000001   0.000001   0.000000
    15  O   -0.000003   0.000002  -0.000000  -0.000000   0.000000  -0.000000
    16  O   -0.000003  -0.000039   0.000001   0.000000  -0.000000  -0.000000
    17  O    0.000000  -0.000001  -0.000000  -0.000000   0.000000   0.000000
    18  O   -0.000000  -0.000000   0.000000  -0.000000  -0.000000  -0.000000
    19  H    0.000000   0.000000   0.000000  -0.000000   0.000000   0.000000
    20  H    0.000000   0.000000  -0.000000   0.000000  -0.000000   0.000000
    21  S   -0.000037   0.000000   0.000000  -0.000000  -0.000000  -0.000000
    22  C    0.000001  -0.000000   0.000000   0.000000  -0.000000   0.000000
    23  H   -0.000000   0.000000   0.000000  -0.000000  -0.000000  -0.000000
    24  H    0.000000  -0.000000  -0.000000   0.000000   0.000000   0.000000
    25  H    0.000000  -0.000000   0.000000  -0.000000   0.000000  -0.000000
    26  C    0.000000  -0.000000  -0.000000   0.000000   0.000000   0.000000
    27  H    0.000000   0.000000  -0.000000   0.000000   0.000000  -0.000000
    28  H   -0.000000  -0.000000   0.000000  -0.000000   0.000000  -0.000000
    29  H   -0.000000   0.000000   0.000000  -0.000000  -0.000000   0.000000
    30  C   -0.034517   0.004730  -0.000106   0.003122  -0.000103   0.000012
    31  H   -0.001778  -0.000164  -0.000046   0.000877   0.000001   0.000000
    32  H    0.000764  -0.000120   0.000017  -0.000068   0.000000  -0.000000
    33  H    0.002004  -0.000030  -0.000007  -0.000076  -0.000000  -0.000000
               7          8          9         10         11         12
     1  C    0.628946   0.264127  -0.023440   0.000788   0.000002  -0.000029
     2  C    0.000586  -0.056198   0.452289  -0.077641   0.000910  -0.008426
     3  C    0.002305  -0.010755  -0.027195   0.007032  -0.000032   0.000910
     4  N   -0.090924  -0.103895  -0.017065   0.000205  -0.000001   0.000019
     5  H    0.000003   0.003548  -0.026196  -0.006100  -0.000012   0.004186
     6  H   -0.000095  -0.000379   0.002787  -0.000128   0.000000  -0.000013
     7  O    8.031632  -0.088234   0.000347  -0.000059  -0.000000   0.000001
     8  N   -0.088234   7.239612   0.296400  -0.081920  -0.002751   0.006606
     9  C    0.000347   0.296400   4.293056   0.488054  -0.001044  -0.047766
    10  N   -0.000059  -0.081920   0.488054   7.120624   0.107089   0.303782
    11  H   -0.000000  -0.002751  -0.001044   0.107089   0.223437  -0.006405
    12  H    0.000001   0.006606  -0.047766   0.303782  -0.006405   0.409602
    13  H    0.007002   0.005311   0.000240   0.000011  -0.000000  -0.000001
    14  P    0.000001  -0.000356   0.001153   0.007876  -0.012023  -0.000199
    15  O   -0.000000   0.000065   0.000181  -0.000545  -0.000545  -0.000008
    16  O   -0.000000   0.000265  -0.000440  -0.063946   0.162340   0.002410
    17  O   -0.000000   0.000001   0.000043  -0.000294   0.000852   0.000270
    18  O   -0.000000   0.000000   0.000000  -0.000017   0.000088   0.000001
    19  H    0.000000   0.000000   0.000002  -0.000025  -0.000027  -0.000010
    20  H    0.000000  -0.000000  -0.000000   0.000009  -0.000015  -0.000000
    21  S   -0.000022   0.000321  -0.000007   0.000003   0.000006  -0.000000
    22  C    0.000000   0.000012  -0.000000  -0.000003  -0.000043   0.000000
    23  H    0.000000   0.000000  -0.000000  -0.000000  -0.000000   0.000000
    24  H   -0.000000  -0.000011  -0.000002   0.000005   0.000035   0.000000
    25  H   -0.000000   0.000001   0.000001  -0.000001  -0.000030   0.000000
    26  C    0.000000  -0.000000  -0.000000   0.000000  -0.000000  -0.000000
    27  H   -0.000000   0.000000   0.000000   0.000000   0.000000  -0.000000
    28  H   -0.000000  -0.000001   0.000000  -0.000000   0.000000   0.000000
    29  H    0.000000   0.000000  -0.000000   0.000000  -0.000000  -0.000000
    30  C   -0.010710   0.223033  -0.034076  -0.005468   0.002843   0.000097
    31  H    0.016568  -0.030060   0.003452   0.000507   0.000022  -0.000003
    32  H    0.000282  -0.032495  -0.002955   0.000841  -0.001785   0.000050
    33  H    0.000458  -0.037779  -0.004665   0.003206   0.001615   0.000080
              13         14         15         16         17         18
     1  C   -0.011326  -0.000002  -0.000003  -0.000003   0.000000  -0.000000
     2  C    0.003124  -0.000070   0.000002  -0.000039  -0.000001  -0.000000
     3  C   -0.022590  -0.000002  -0.000000   0.000001  -0.000000   0.000000
     4  N    0.303801   0.000001  -0.000000   0.000000  -0.000000  -0.000000
     5  H   -0.000118   0.000001   0.000000  -0.000000   0.000000  -0.000000
     6  H   -0.004582   0.000000  -0.000000  -0.000000   0.000000  -0.000000
     7  O    0.007002   0.000001  -0.000000  -0.000000  -0.000000  -0.000000
     8  N    0.005311  -0.000356   0.000065   0.000265   0.000001   0.000000
     9  C    0.000240   0.001153   0.000181  -0.000440   0.000043   0.000000
    10  N    0.000011   0.007876  -0.000545  -0.063946  -0.000294  -0.000017
    11  H   -0.000000  -0.012023  -0.000545   0.162340   0.000852   0.000088
    12  H   -0.000001  -0.000199  -0.000008   0.002410   0.000270   0.000001
    13  H    0.334990  -0.000000  -0.000000  -0.000000  -0.000000  -0.000000
    14  P   -0.000000  12.337898   0.546580   0.342674   0.304409   0.304394
    15  O   -0.000000   0.546580   8.110397  -0.025228  -0.037047  -0.028908
    16  O   -0.000000   0.342674  -0.025228   8.388955  -0.038988  -0.040741
    17  O   -0.000000   0.304409  -0.037047  -0.038988   8.228030  -0.037833
    18  O   -0.000000   0.304394  -0.028908  -0.040741  -0.037833   8.213035
    19  H    0.000000  -0.004063   0.001889   0.001405   0.246347   0.000013
    20  H    0.000000  -0.001929   0.000964   0.002967  -0.000562   0.244503
    21  S   -0.000000  -0.000564   0.000054   0.000048   0.000000   0.000203
    22  C   -0.000000   0.000783  -0.006672  -0.004039  -0.000015   0.002828
    23  H    0.000000  -0.000177   0.000123   0.000107   0.000000   0.000015
    24  H    0.000000   0.000782  -0.001675   0.010958   0.000008   0.000246
    25  H   -0.000000   0.003617   0.015866  -0.001329   0.000010  -0.001894
    26  C   -0.000000   0.000003  -0.000001   0.000004  -0.000000  -0.000000
    27  H    0.000000   0.000000   0.000000   0.000000   0.000000   0.000000
    28  H    0.000000   0.000007   0.000000  -0.000009  -0.000000  -0.000001
    29  H   -0.000000  -0.000005   0.000000   0.000000  -0.000000  -0.000000
    30  C   -0.000087  -0.001084  -0.009153   0.002106  -0.000004  -0.000010
    31  H   -0.000020   0.000053   0.000049   0.000187  -0.000000  -0.000000
    32  H    0.000002   0.003666   0.025374  -0.001647  -0.000187  -0.000089
    33  H    0.000002  -0.000416   0.000088   0.001525   0.000007   0.000001
              19         20         21         22         23         24
     1  C    0.000000   0.000000  -0.000037   0.000001  -0.000000   0.000000
     2  C    0.000000   0.000000   0.000000  -0.000000   0.000000  -0.000000
     3  C    0.000000  -0.000000   0.000000   0.000000   0.000000  -0.000000
     4  N   -0.000000   0.000000  -0.000000   0.000000  -0.000000   0.000000
     5  H    0.000000  -0.000000  -0.000000  -0.000000  -0.000000   0.000000
     6  H    0.000000   0.000000  -0.000000   0.000000  -0.000000   0.000000
     7  O    0.000000   0.000000  -0.000022   0.000000   0.000000  -0.000000
     8  N    0.000000  -0.000000   0.000321   0.000012   0.000000  -0.000011
     9  C    0.000002  -0.000000  -0.000007  -0.000000  -0.000000  -0.000002
    10  N   -0.000025   0.000009   0.000003  -0.000003  -0.000000   0.000005
    11  H   -0.000027  -0.000015   0.000006  -0.000043  -0.000000   0.000035
    12  H   -0.000010  -0.000000  -0.000000   0.000000   0.000000   0.000000
    13  H    0.000000   0.000000  -0.000000  -0.000000   0.000000   0.000000
    14  P   -0.004063  -0.001929  -0.000564   0.000783  -0.000177   0.000782
    15  O    0.001889   0.000964   0.000054  -0.006672   0.000123  -0.001675
    16  O    0.001405   0.002967   0.000048  -0.004039   0.000107   0.010958
    17  O    0.246347  -0.000562   0.000000  -0.000015   0.000000   0.000008
    18  O    0.000013   0.244503   0.000203   0.002828   0.000015   0.000246
    19  H    0.307264   0.000085  -0.000000   0.000002  -0.000000   0.000001
    20  H    0.000085   0.307732  -0.000011  -0.000059   0.000050   0.000135
    21  S   -0.000000  -0.000011  15.662447   0.243319  -0.045717  -0.046049
    22  C    0.000002  -0.000059   0.243319   5.400625   0.361718   0.363461
    23  H   -0.000000   0.000050  -0.045717   0.361718   0.544876  -0.034678
    24  H    0.000001   0.000135  -0.046049   0.363461  -0.034678   0.526403
    25  H    0.000000  -0.000003  -0.030766   0.364584  -0.019706  -0.024927
    26  C    0.000000   0.000000   0.247871  -0.031296  -0.004243  -0.004351
    27  H   -0.000000  -0.000000  -0.033243   0.003029  -0.000026  -0.000002
    28  H    0.000000   0.000000  -0.046984  -0.003730  -0.001380   0.006998
    29  H   -0.000000   0.000000  -0.044814  -0.004196   0.006569  -0.001333
    30  C    0.000001   0.000005  -0.003336   0.000012   0.000010   0.000104
    31  H   -0.000000  -0.000000   0.004206  -0.000332   0.000011   0.000003
    32  H   -0.000003  -0.000010   0.000350  -0.000233   0.000037  -0.000677
    33  H   -0.000000  -0.000001   0.000358  -0.000110   0.000001   0.000695
              25         26         27         28         29         30
     1  C    0.000000   0.000000   0.000000  -0.000000  -0.000000  -0.034517
     2  C   -0.000000  -0.000000   0.000000  -0.000000   0.000000   0.004730
     3  C    0.000000  -0.000000  -0.000000   0.000000   0.000000  -0.000106
     4  N   -0.000000   0.000000   0.000000  -0.000000  -0.000000   0.003122
     5  H    0.000000   0.000000   0.000000   0.000000  -0.000000  -0.000103
     6  H   -0.000000   0.000000  -0.000000  -0.000000   0.000000   0.000012
     7  O   -0.000000   0.000000  -0.000000  -0.000000   0.000000  -0.010710
     8  N    0.000001  -0.000000   0.000000  -0.000001   0.000000   0.223033
     9  C    0.000001  -0.000000   0.000000   0.000000  -0.000000  -0.034076
    10  N   -0.000001   0.000000   0.000000  -0.000000   0.000000  -0.005468
    11  H   -0.000030  -0.000000   0.000000   0.000000  -0.000000   0.002843
    12  H    0.000000  -0.000000  -0.000000   0.000000  -0.000000   0.000097
    13  H   -0.000000  -0.000000   0.000000   0.000000  -0.000000  -0.000087
    14  P    0.003617   0.000003   0.000000   0.000007  -0.000005  -0.001084
    15  O    0.015866  -0.000001   0.000000   0.000000   0.000000  -0.009153
    16  O   -0.001329   0.000004   0.000000  -0.000009   0.000000   0.002106
    17  O    0.000010  -0.000000   0.000000  -0.000000  -0.000000  -0.000004
    18  O   -0.001894  -0.000000   0.000000  -0.000001  -0.000000  -0.000010
    19  H    0.000000   0.000000  -0.000000   0.000000  -0.000000   0.000001
    20  H   -0.000003   0.000000  -0.000000   0.000000   0.000000   0.000005
    21  S   -0.030766   0.247871  -0.033243  -0.046984  -0.044814  -0.003336
    22  C    0.364584  -0.031296   0.003029  -0.003730  -0.004196   0.000012
    23  H   -0.019706  -0.004243  -0.000026  -0.001380   0.006569   0.000010
    24  H   -0.024927  -0.004351  -0.000002   0.006998  -0.001333   0.000104
    25  H    0.445690   0.002622  -0.000058  -0.000000  -0.000015  -0.000211
    26  C    0.002622   5.345865   0.372851   0.366335   0.366009  -0.000046
    27  H   -0.000058   0.372851   0.502190  -0.024245  -0.024356   0.000002
    28  H   -0.000000   0.366335  -0.024245   0.546427  -0.038218   0.000015
    29  H   -0.000015   0.366009  -0.024356  -0.038218   0.543611   0.000000
    30  C   -0.000211  -0.000046   0.000002   0.000015   0.000000   5.194338
    31  H   -0.000046  -0.000063  -0.000001  -0.000011   0.000002   0.364856
    32  H    0.000725   0.000002   0.000000  -0.000002   0.000000   0.359233
    33  H   -0.000049  -0.000011  -0.000002   0.000081  -0.000000   0.374909
              31         32         33
     1  C   -0.001778   0.000764   0.002004
     2  C   -0.000164  -0.000120  -0.000030
     3  C   -0.000046   0.000017  -0.000007
     4  N    0.000877  -0.000068  -0.000076
     5  H    0.000001   0.000000  -0.000000
     6  H    0.000000  -0.000000  -0.000000
     7  O    0.016568   0.000282   0.000458
     8  N   -0.030060  -0.032495  -0.037779
     9  C    0.003452  -0.002955  -0.004665
    10  N    0.000507   0.000841   0.003206
    11  H    0.000022  -0.001785   0.001615
    12  H   -0.000003   0.000050   0.000080
    13  H   -0.000020   0.000002   0.000002
    14  P    0.000053   0.003666  -0.000416
    15  O    0.000049   0.025374   0.000088
    16  O    0.000187  -0.001647   0.001525
    17  O   -0.000000  -0.000187   0.000007
    18  O   -0.000000  -0.000089   0.000001
    19  H   -0.000000  -0.000003  -0.000000
    20  H   -0.000000  -0.000010  -0.000001
    21  S    0.004206   0.000350   0.000358
    22  C   -0.000332  -0.000233  -0.000110
    23  H    0.000011   0.000037   0.000001
    24  H    0.000003  -0.000677   0.000695
    25  H   -0.000046   0.000725  -0.000049
    26  C   -0.000063   0.000002  -0.000011
    27  H   -0.000001   0.000000  -0.000002
    28  H   -0.000011  -0.000002   0.000081
    29  H    0.000002   0.000000  -0.000000
    30  C    0.364856   0.359233   0.374909
    31  H    0.427125  -0.016395  -0.020474
    32  H   -0.016395   0.443520  -0.029061
    33  H   -0.020474  -0.029061   0.504816
 Mulliken charges:
               1
     1  C    0.827175
     2  C   -0.298380
     3  C    0.108046
     4  N   -0.702951
     5  H    0.194665
     6  H    0.215145
     7  O   -0.498088
     8  N   -0.594469
     9  C    0.646848
    10  N   -0.803884
    11  H    0.525476
    12  H    0.334847
    13  H    0.384241
    14  P    1.166992
    15  O   -0.591848
    16  O   -0.739540
    17  O   -0.665048
    18  O   -0.655833
    19  H    0.447119
    20  H    0.446138
    21  S    0.092364
    22  C   -0.689649
    23  H    0.192411
    24  H    0.203871
    25  H    0.245919
    26  C   -0.661550
    27  H    0.203862
    28  H    0.194717
    29  H    0.196745
    30  C   -0.430517
    31  H    0.251474
    32  H    0.250865
    33  H    0.202837
 Sum of Mulliken charges =  -0.00000
 Mulliken charges with hydrogens summed into heavy atoms:
               1
     1  C    0.827175
     2  C   -0.103715
     3  C    0.323191
     4  N   -0.318710
     7  O   -0.498088
     8  N   -0.594469
     9  C    0.646848
    10  N   -0.469037
    14  P    1.166992
    15  O   -0.591848
    16  O   -0.214065
    17  O   -0.217928
    18  O   -0.209695
    21  S    0.092364
    22  C   -0.047448
    26  C   -0.066226
    30  C    0.274659
 Electronic spatial extent (au):  <R**2>=           6591.1200
 Charge=              0.0000 electrons
 Dipole moment (field-independent basis, Debye):
    X=             -3.9439    Y=             -0.0102    Z=              6.9486  Tot=              7.9899
 Quadrupole moment (field-independent basis, Debye-Ang):
   XX=            -88.2274   YY=           -106.7336   ZZ=           -111.7144
   XY=            -13.8848   XZ=            -13.0816   YZ=             12.2342
 Traceless Quadrupole moment (field-independent basis, Debye-Ang):
   XX=             13.9977   YY=             -4.5085   ZZ=             -9.4893
   XY=            -13.8848   XZ=            -13.0816   YZ=             12.2342
 Octapole moment (field-independent basis, Debye-Ang**2):
  XXX=            -32.4415  YYY=            -77.8268  ZZZ=             33.9218  XYY=            -52.6404
  XXY=              4.9199  XXZ=             40.5266  XZZ=            -61.4573  YZZ=              2.1356
  YYZ=             31.7399  XYZ=            -32.4469
 Hexadecapole moment (field-independent basis, Debye-Ang**3):
 XXXX=          -2828.6081 YYYY=          -3096.5160 ZZZZ=          -1903.7397 XXXY=            106.4990
 XXXZ=            752.1946 YYYX=            -12.0218 YYYZ=           -281.3850 ZZZX=            842.1095
 ZZZY=           -444.9121 XXYY=           -780.5103 XXZZ=           -724.0774 YYZZ=           -806.2293
 XXYZ=             13.7379 YYXZ=            204.5881 ZZXY=            -32.7125
 N-N= 1.575777221920D+03 E-N=-6.819039514420D+03  KE= 1.546168926919D+03
 R6APFD:  NTU= -4 IXU= 1 FactS= 1.050
 Calling FoFJK, ICntrl=      2127 FMM=F ISym2X=0 I1Cent= 0 IOpClX= 0 NMat=1 NMatS=1 NMatT=0.
 -------------------------------------------------------------------
 Center     Atomic                   Forces (Hartrees/Bohr)
 Number     Number              X              Y              Z
 -------------------------------------------------------------------
      1        6          -0.001591256   -0.004406463    0.002838357
      2        6           0.004511513   -0.003582923   -0.002928303
      3        6          -0.000329950    0.004878727   -0.001292966
      4        7          -0.001731878   -0.001502764    0.001966133
      5        1          -0.000656096   -0.000591748    0.000774151
      6        1          -0.000646988    0.000499213    0.000417910
      7        8           0.003156718    0.005713662   -0.004680965
      8        7           0.001683187   -0.001952521   -0.001104808
      9        6          -0.003109027    0.003818239    0.001479150
     10        7           0.001405158   -0.004160241    0.001114853
     11        1          -0.001554237    0.000140940    0.000203322
     12        1           0.000644033    0.000259236   -0.000763043
     13        1          -0.000012258   -0.000633673    0.000220204
     14       15          -0.000357362   -0.001142887    0.002103754
     15        8          -0.001769091    0.003819674   -0.003992202
     16        8           0.001993889    0.000308868    0.002898480
     17        8          -0.003661061   -0.002979676    0.001492241
     18        8           0.003003647   -0.002717622   -0.001556039
     19        1           0.001381738    0.000402756    0.000350255
     20        1          -0.001087872    0.000841715   -0.000649196
     21       16          -0.000142590   -0.000025212   -0.000138545
     22        6          -0.000324265    0.001695753   -0.000221492
     23        1           0.000322179   -0.001047156   -0.000614100
     24        1          -0.000105640   -0.000350100   -0.000367290
     25        1           0.000345166   -0.000161019    0.000137431
     26        6          -0.001311122    0.001179860   -0.000734548
     27        1           0.000667910    0.000882724    0.000203930
     28        1           0.000472110   -0.000515743    0.001381242
     29        1           0.001380274   -0.000781716   -0.000341602
     30        6          -0.002977966    0.000384789    0.002036719
     31        1           0.000258295   -0.000093503   -0.000183556
     32        1           0.000297374    0.001191809    0.000470959
     33        1          -0.000154532    0.000627001   -0.000520434
 -------------------------------------------------------------------
 Cartesian Forces:  Max     0.005713662 RMS     0.001913774

 GradGradGradGradGradGradGradGradGradGradGradGradGradGradGradGradGradGrad
 Berny optimization.
 FormGI is forming the generalized inverse of G from B-inverse, IUseBI=4.
 Internal  Forces:  Max     0.008030331 RMS     0.001276475
 Search for a local minimum.
 Step number   1 out of a maximum of  169
 All quantities printed in internal units (Hartrees-Bohrs-Radians)
 Mixed Optimization -- RFO/linear search
 Second derivative matrix not updated -- first step.
 ITU=  0
     Eigenvalues ---    0.00230   0.00230   0.00232   0.00239   0.00444
     Eigenvalues ---    0.00588   0.00792   0.01418   0.01671   0.01812
     Eigenvalues ---    0.01841   0.01908   0.01994   0.01996   0.02093
     Eigenvalues ---    0.02119   0.02349   0.02566   0.02927   0.03057
     Eigenvalues ---    0.03167   0.03337   0.04191   0.05017   0.06018
     Eigenvalues ---    0.06873   0.07562   0.07711   0.07858   0.08784
     Eigenvalues ---    0.09565   0.09642   0.09747   0.09861   0.10047
     Eigenvalues ---    0.11202   0.12346   0.13598   0.15928   0.15997
     Eigenvalues ---    0.15999   0.16000   0.16000   0.16000   0.16000
     Eigenvalues ---    0.16000   0.16000   0.16000   0.16000   0.16000
     Eigenvalues ---    0.16642   0.17152   0.17716   0.19980   0.20967
     Eigenvalues ---    0.22106   0.23490   0.24923   0.24999   0.25000
     Eigenvalues ---    0.25000   0.25146   0.25174   0.33520   0.33756
     Eigenvalues ---    0.34321   0.34426   0.34440   0.34444   0.34506
     Eigenvalues ---    0.34626   0.35251   0.35547   0.35824   0.35970
     Eigenvalues ---    0.36563   0.41855   0.43862   0.44802   0.45208
     Eigenvalues ---    0.45895   0.47324   0.47777   0.50125   0.50707
     Eigenvalues ---    0.53441   0.53449   0.55234   0.55479   0.69646
     Eigenvalues ---    0.83429   1.000281000.000001000.000001000.00000
     Eigenvalues --- 1000.000001000.000001000.000001000.000001000.00000
     Eigenvalues --- 1000.000001000.000001000.000001000.000001000.00000
     Eigenvalues --- 1000.000001000.000001000.000001000.000001000.00000
     Eigenvalues --- 1000.000001000.000001000.000001000.000001000.00000
     Eigenvalues --- 1000.000001000.000001000.000001000.000001000.00000
     Eigenvalues --- 1000.000001000.000001000.000001000.000001000.00000
     Eigenvalues --- 1000.000001000.000001000.000001000.000001000.00000
     Eigenvalues --- 1000.000001000.000001000.000001000.000001000.00000
     Eigenvalues --- 1000.000001000.000001000.000001000.000001000.00000
     Eigenvalues --- 1000.000001000.000001000.000001000.000001000.00000
     Eigenvalues --- 1000.000001000.000001000.000001000.000001000.00000
     Eigenvalues --- 1000.000001000.000001000.000001000.000001000.00000
     Eigenvalues --- 1000.000001000.000001000.000001000.00000
 RFO step:  Lambda=-9.70523976D-04 EMin= 2.30000000D-03
 Linear search not attempted -- first point.
 Iteration  1 RMS(Cart)=  0.14435331 RMS(Int)=  0.00558641
 Iteration  2 RMS(Cart)=  0.03535599 RMS(Int)=  0.00215277
 Iteration  3 RMS(Cart)=  0.00253211 RMS(Int)=  0.00213658
 Iteration  4 RMS(Cart)=  0.00036852 RMS(Int)=  0.00213647
 Iteration  5 RMS(Cart)=  0.00005165 RMS(Int)=  0.00213646
 Iteration  6 RMS(Cart)=  0.00000725 RMS(Int)=  0.00213646
 Iteration  7 RMS(Cart)=  0.00000102 RMS(Int)=  0.00213646
 Iteration  8 RMS(Cart)=  0.00000014 RMS(Int)=  0.00213646
 Iteration  1 RMS(Cart)=  0.00866660 RMS(Int)=  0.00052018
 Iteration  2 RMS(Cart)=  0.00213820 RMS(Int)=  0.00056641
 Iteration  3 RMS(Cart)=  0.00053136 RMS(Int)=  0.00059088
 Iteration  4 RMS(Cart)=  0.00013231 RMS(Int)=  0.00059765
 Iteration  5 RMS(Cart)=  0.00003296 RMS(Int)=  0.00059937
 Iteration  6 RMS(Cart)=  0.00000821 RMS(Int)=  0.00059980
 Iteration  7 RMS(Cart)=  0.00000205 RMS(Int)=  0.00059991
 Iteration  8 RMS(Cart)=  0.00000051 RMS(Int)=  0.00059994
 Variable       Old X    -DE/DX   Delta X   Delta X   Delta X     New X
                                 (Linear)    (Quad)   (Total)
    R1        2.62767   0.00127   0.00000   0.00259   0.00181   2.62948
    R2        2.28627   0.00803   0.00000   0.00802   0.00804   2.29431
    R3        2.62921   0.00094   0.00000   0.00207   0.00271   2.63193
    R4        2.53685   0.00379   0.00000   0.00661   0.00602   2.54288
    R5        2.04357   0.00115   0.00000   0.00320   0.00321   2.04679
    R6        2.74792  -0.00286   0.00000  -0.00746  -0.00672   2.74120
    R7        2.58118  -0.00236   0.00000  -0.00471  -0.00601   2.57517
    R8        2.04796   0.00090   0.00000   0.00252   0.00254   2.05049
    R9        1.90950  -0.00061   0.00000  -0.00133  -0.00132   1.90818
   R10        2.62305   0.00070   0.00000   0.00177   0.00390   2.62695
   R11        2.77419  -0.00353   0.00000  -0.00985  -0.01051   2.76369
   R12        2.43928   0.00430   0.00000   0.00627   0.00771   2.44699
   R13        2.97152  -0.00048   0.00000  -0.00447  -0.00332   2.96820
   R14        1.92207  -0.00096   0.00000  -0.00214  -0.00213   1.91993
   R15        1.95754   0.00069   0.00000   0.00176   0.00288   1.96042
   R16        2.78583   0.00563   0.00000   0.00680   0.00628   2.79211
   R17        2.96831   0.00307   0.00000   0.00573   0.00664   2.97494
   R18        3.05875   0.00387   0.00000   0.00809   0.00796   3.06672
   R19        3.03440   0.00336   0.00000   0.00670   0.00671   3.04111
   R20        4.70837   0.00079   0.00000   0.03705   0.03577   4.74414
   R21        4.87843   0.00113   0.00000   0.04974   0.05022   4.92865
   R22        1.83244  -0.00131   0.00000  -0.00246  -0.00231   1.83013
   R23        1.83237  -0.00145   0.00000  -0.00270  -0.00270   1.82967
   R24        3.42534   0.00127   0.00000   0.00470   0.00271   3.42805
   R25        3.42467   0.00120   0.00000   0.00475   0.00475   3.42942
   R26        2.06587   0.00114   0.00000   0.00330   0.00331   2.06918
   R27        2.06711   0.00076   0.00000   0.00142   0.00249   2.06959
   R28        2.06444   0.00037   0.00000   0.00062  -0.00025   2.06419
   R29        2.06286   0.00110   0.00000   0.00316   0.00317   2.06604
   R30        2.06617   0.00142   0.00000   0.00411   0.00412   2.07028
   R31        2.06594   0.00146   0.00000   0.00422   0.00423   2.07016
   R32        2.05268   0.00010   0.00000   0.00028   0.00031   2.05299
   R33        2.06791  -0.00121   0.00000  -0.00352  -0.00350   2.06441
   R34        2.06485  -0.00065   0.00000  -0.00188  -0.00188   2.06298
    A1        2.10993   0.00012   0.00000   0.00033  -0.00042   2.10951
    A2        2.00242  -0.00084   0.00000  -0.00304  -0.00155   2.00087
    A3        2.17083   0.00072   0.00000   0.00272   0.00197   2.17280
    A4        2.11936  -0.00055   0.00000  -0.00310  -0.00398   2.11538
    A5        2.08690   0.00061   0.00000   0.00317   0.00492   2.09182
    A6        2.07692  -0.00006   0.00000  -0.00007  -0.00094   2.07598
    A7        2.10660  -0.00045   0.00000  -0.00219  -0.00243   2.10417
    A8        2.15073   0.00043   0.00000   0.00235   0.00247   2.15319
    A9        2.02586   0.00003   0.00000  -0.00016  -0.00004   2.02582
   A10        2.16442   0.00044   0.00000   0.00183   0.00148   2.16590
   A11        1.99109   0.00003   0.00000   0.00065   0.00083   1.99192
   A12        2.12764  -0.00047   0.00000  -0.00249  -0.00231   2.12533
   A13        2.17045   0.00074   0.00000   0.00263   0.00165   2.17209
   A14        2.04443  -0.00096   0.00000  -0.00531  -0.01145   2.03298
   A15        2.06822   0.00022   0.00000   0.00260   0.00974   2.07796
   A16        2.03557  -0.00049   0.00000  -0.00240  -0.00407   2.03150
   A17        2.16966  -0.00067   0.00000  -0.00435  -0.01164   2.15802
   A18        2.07794   0.00116   0.00000   0.00677   0.01572   2.09366
   A19        2.37886   0.00041   0.00000   0.00595   0.01623   2.39508
   A20        1.94087   0.00008   0.00000  -0.00163  -0.00625   1.93462
   A21        1.95723  -0.00052   0.00000  -0.00545  -0.01104   1.94619
   A22        2.10234  -0.00070   0.00000  -0.00209  -0.00043   2.10191
   A23        1.95777   0.00079   0.00000   0.00384   0.00326   1.96103
   A24        1.95990  -0.00064   0.00000  -0.00447  -0.00507   1.95483
   A25        1.79110   0.00023   0.00000   0.00092  -0.00004   1.79106
   A26        1.77722   0.00060   0.00000   0.00292   0.00301   1.78023
   A27        1.84978  -0.00022   0.00000  -0.00084  -0.00050   1.84928
   A28        1.62997   0.00001   0.00000   0.00706   0.00540   1.63537
   A29        1.95479   0.00010   0.00000  -0.00177  -0.00323   1.95156
   A30        2.08438  -0.00048   0.00000  -0.00369   0.00030   2.08468
   A31        1.56942  -0.00008   0.00000   0.00325   0.00193   1.57135
   A32        1.90377  -0.00122   0.00000  -0.00753  -0.00789   1.89588
   A33        1.94098  -0.00084   0.00000  -0.00524  -0.00524   1.93574
   A34        1.71804   0.00410   0.00000   0.01632   0.01632   1.73436
   A35        1.93760   0.00042   0.00000   0.00525   0.00496   1.94255
   A36        1.93164   0.00055   0.00000   0.00533   0.00727   1.93891
   A37        1.88733  -0.00037   0.00000  -0.00192  -0.00403   1.88330
   A38        1.91486  -0.00027   0.00000  -0.00206  -0.00263   1.91223
   A39        1.90132  -0.00006   0.00000  -0.00241  -0.00203   1.89929
   A40        1.89003  -0.00031   0.00000  -0.00455  -0.00395   1.88607
   A41        2.34404   0.00093   0.00000   0.00359   0.00245   2.34649
   A42        2.38775   0.00060   0.00000   0.00329   0.00392   2.39167
   A43        1.88141  -0.00002   0.00000  -0.00053  -0.00053   1.88088
   A44        1.93633   0.00072   0.00000   0.00462   0.00461   1.94094
   A45        1.93578   0.00090   0.00000   0.00587   0.00586   1.94164
   A46        1.90044  -0.00050   0.00000  -0.00363  -0.00363   1.89681
   A47        1.89924  -0.00051   0.00000  -0.00346  -0.00346   1.89578
   A48        1.90978  -0.00063   0.00000  -0.00315  -0.00317   1.90661
   A49        2.86065   0.00175   0.00000   0.00000  -0.00000   2.86064
   A50        1.88561   0.00026   0.00000   0.00058   0.00058   1.88619
   A51        1.91522  -0.00004   0.00000   0.00010   0.00010   1.91532
   A52        1.90768   0.00040   0.00000   0.00318   0.00318   1.91086
   A53        1.92708  -0.00035   0.00000  -0.00352  -0.00351   1.92356
   A54        1.91841  -0.00045   0.00000  -0.00347  -0.00348   1.91493
   A55        1.90964   0.00018   0.00000   0.00315   0.00313   1.91277
   A56        3.02129   0.00127   0.00000   0.13090   0.11875   3.14004
   A57        3.18030   0.00015   0.00000   0.10116   0.10977   3.29007
    D1        3.14135  -0.00008   0.00000  -0.00322  -0.00177   3.13957
    D2        0.00856  -0.00005   0.00000  -0.00213  -0.00139   0.00717
    D3       -0.00202  -0.00001   0.00000  -0.00026   0.00021  -0.00181
    D4       -3.13481   0.00002   0.00000   0.00083   0.00060  -3.13421
    D5       -0.00325  -0.00005   0.00000  -0.00133  -0.00067  -0.00392
    D6        3.12340  -0.00019   0.00000  -0.00815  -0.00467   3.11873
    D7        3.13650   0.00003   0.00000   0.00176   0.00140   3.13789
    D8       -0.02004  -0.00012   0.00000  -0.00507  -0.00260  -0.02264
    D9        3.14095  -0.00000   0.00000   0.00021   0.00062   3.14157
   D10        0.00028  -0.00001   0.00000  -0.00013   0.00020   0.00048
   D11       -0.00403   0.00002   0.00000   0.00081   0.00036  -0.00367
   D12        3.13848   0.00002   0.00000   0.00047  -0.00006   3.13843
   D13       -0.00085  -0.00007   0.00000  -0.00218  -0.00073  -0.00159
   D14        3.13449   0.00001   0.00000   0.00084   0.00183   3.13632
   D15        3.13743  -0.00005   0.00000  -0.00160  -0.00099   3.13644
   D16       -0.01041   0.00003   0.00000   0.00142   0.00157  -0.00884
   D17        0.00570   0.00002   0.00000   0.00045  -0.00010   0.00560
   D18        3.13782  -0.00002   0.00000  -0.00070  -0.00050   3.13733
   D19       -3.13675   0.00002   0.00000   0.00077   0.00029  -3.13646
   D20       -0.00462  -0.00001   0.00000  -0.00038  -0.00011  -0.00473
   D21        0.00463   0.00008   0.00000   0.00250   0.00092   0.00555
   D22       -3.13106   0.00001   0.00000  -0.00031  -0.00144  -3.13250
   D23       -3.12183   0.00024   0.00000   0.00947   0.00518  -3.11665
   D24        0.02566   0.00017   0.00000   0.00666   0.00282   0.02848
   D25        0.08256   0.00004   0.00000   0.00546   0.00418   0.08674
   D26       -2.01937   0.00034   0.00000   0.00933   0.00803  -2.01134
   D27        2.16964  -0.00011   0.00000   0.00345   0.00216   2.17180
   D28       -3.07307  -0.00009   0.00000  -0.00094   0.00035  -3.07272
   D29        1.10818   0.00021   0.00000   0.00293   0.00420   1.11239
   D30       -0.98599  -0.00024   0.00000  -0.00295  -0.00167  -0.98766
   D31        3.02130  -0.00000   0.00000  -0.00272  -0.00787   3.01343
   D32        0.01361   0.00041   0.00000   0.00983   0.00453   0.01815
   D33       -0.12669   0.00008   0.00000   0.00034  -0.00529  -0.13198
   D34       -3.13437   0.00048   0.00000   0.01289   0.00711  -3.12726
   D35       -1.38992   0.00006   0.00000  -0.00763  -0.00891  -1.39883
   D36        0.40302   0.00012   0.00000   0.06397   0.06312   0.46614
   D37        1.55811   0.00037   0.00000   0.06752   0.06196   1.62007
   D38       -2.93213   0.00043   0.00000   0.13913   0.13399  -2.79814
   D39        1.15831  -0.00077   0.00000  -0.00485  -0.00294   1.15537
   D40       -3.01499  -0.00029   0.00000  -0.00170  -0.00031  -3.01530
   D41       -0.93385  -0.00047   0.00000  -0.00321  -0.00222  -0.93607
   D42        0.96133   0.00057   0.00000   0.00843   0.01029   0.97162
   D43       -1.16729   0.00112   0.00000   0.01141   0.00986  -1.15743
   D44       -1.22858  -0.00022   0.00000   0.00387   0.00622  -1.22236
   D45        2.92600   0.00033   0.00000   0.00685   0.00578   2.93177
   D46       -3.14120  -0.00024   0.00000   0.00358   0.00582  -3.13538
   D47        1.01337   0.00031   0.00000   0.00656   0.00539   1.01875
   D48        0.41297  -0.00001   0.00000   0.00102   0.00032   0.41329
   D49        2.69418  -0.00021   0.00000   0.00154   0.00186   2.69605
   D50       -1.73167   0.00046   0.00000   0.00479   0.00496  -1.72670
   D51        2.88456  -0.00039   0.00000  -0.00046   0.00041   2.88497
   D52        0.61201   0.00045   0.00000   0.00283   0.00195   0.61396
   D53       -1.25534   0.00005   0.00000   0.00103   0.00105  -1.25429
   D54       -0.36293  -0.00038   0.00000  -0.02474  -0.02565  -0.38859
   D55       -1.55048   0.00021   0.00000   0.00894   0.00860  -1.54188
   D56        0.46408   0.00016   0.00000   0.00790   0.00607   0.47015
   D57       -1.10213  -0.00026   0.00000  -0.04146  -0.04198  -1.14411
   D58        1.02869   0.00007   0.00000  -0.03681  -0.03682   0.99187
   D59        3.09625  -0.00020   0.00000  -0.04042  -0.03990   3.05635
   D60       -3.13437   0.00005   0.00000   0.00519   0.00519  -3.12918
   D61       -1.05505  -0.00016   0.00000   0.00312   0.00311  -1.05194
   D62        1.07128   0.00016   0.00000   0.00632   0.00633   1.07762
   D63        2.14379  -0.00036   0.00000  -0.02657  -0.02682   2.11697
   D64       -1.99531   0.00036   0.00000  -0.01778  -0.01745  -2.01276
   D65        0.07788  -0.00004   0.00000  -0.02456  -0.02371   0.05417
   D66       -2.24037   0.00008   0.00000   0.03122   0.02997  -2.21039
   D67        1.93526  -0.00018   0.00000   0.02743   0.02756   1.96282
   D68       -0.14648   0.00036   0.00000   0.03392   0.03413  -0.11235
         Item               Value     Threshold  Converged?
 Maximum Force            0.008030     0.000015     NO 
 RMS     Force            0.001271     0.000010     NO 
 Maximum Displacement     0.494189     0.000060     NO 
 RMS     Displacement     0.158295     0.000040     NO 
 Predicted change in Energy=-4.258547D-04
 GradGradGradGradGradGradGradGradGradGradGradGradGradGradGradGradGradGrad

                          Input orientation:                          
 ---------------------------------------------------------------------
 Center     Atomic      Atomic             Coordinates (Angstroms)
 Number     Number       Type             X           Y           Z
 ---------------------------------------------------------------------
      1          6           0       -1.516601    3.008909    1.097149
      2          6           0       -2.581024    1.140751    2.932539
      3          6           0       -3.002323    2.418730    2.931119
      4          7           0       -2.485163    3.317779    2.047230
      5          1           0       -2.984898    0.417562    3.630405
      6          1           0       -3.755762    2.799521    3.612820
      7          8           0       -1.098019    3.857039    0.335900
      8          7           0       -1.094387    1.681743    1.108577
      9          6           0       -1.571207    0.712315    1.983384
     10          7           0       -1.109247   -0.495900    1.923794
     11          1           0       -0.162211   -1.323087    0.982525
     12          1           0       -1.561075   -1.090118    2.612985
     13          1           0       -2.790486    4.280081    2.027674
     14         15           0       -0.202913   -2.516884   -0.845483
     15          8           0       -0.724667   -1.584826   -1.866322
     16          8           0        0.468139   -1.966631    0.468004
     17          8           0       -1.352076   -3.506940   -0.268582
     18          8           0        0.949657   -3.472950   -1.434817
     19          1           0       -2.058217   -3.578289   -0.927514
     20          1           0        1.435984   -3.908900   -0.720059
     21         16           0        3.066510    1.097192   -2.030445
     22          6           0        2.530259   -0.634945   -1.976615
     23          1           0        3.227498   -1.284136   -2.516386
     24          1           0        2.428908   -0.984207   -0.943577
     25          1           0        1.549390   -0.697795   -2.453180
     26          6           0        4.600019    0.961784   -1.069504
     27          1           0        5.042055    1.959608   -1.004287
     28          1           0        4.401290    0.599078   -0.055023
     29          1           0        5.316927    0.292880   -1.558069
     30          6           0       -0.097941    1.305757    0.106289
     31          1           0        0.197917    2.204071   -0.428273
     32          1           0       -0.527652    0.578563   -0.586506
     33          1           0        0.771034    0.869444    0.602555
 ---------------------------------------------------------------------
                    Distance matrix (angstroms):
                    1          2          3          4          5
     1  C    0.000000
     2  C    2.826954   0.000000
     3  C    2.432926   1.345632   0.000000
     4  N    1.391462   2.352107   1.362719   0.000000
     5  H    3.910034   1.083113   2.119900   3.341771   0.000000
     6  H    3.374357   2.143434   1.085075   2.081846   2.503651
     7  O    1.214098   4.039809   3.525659   2.267955   5.122897
     8  N    1.392755   2.414456   2.739531   2.343489   3.395851
     9  C    2.462263   1.450580   2.420362   2.761853   2.190452
    10  N    3.623944   2.421223   3.618496   4.056171   2.695366
    11  H    4.540232   3.965313   5.085711   5.297862   4.243665
    12  H    4.370556   2.473699   3.806629   4.539116   2.309873
    13  H    2.025966   3.273842   2.079835   1.009767   4.186358
    14  P    6.002831   5.771235   6.816136   6.900706   6.031914
    15  O    5.523742   5.822705   6.650686   6.515426   6.271540
    16  O    5.393608   5.002714   6.110846   6.256271   5.254391
    17  O    6.659473   5.775683   6.933611   7.295454   5.768009
    18  O    7.382938   7.268132   8.330153   8.368789   7.501552
    19  H    6.912582   6.119043   7.193374   7.522443   6.131900
    20  H    7.737964   7.414635   8.548016   8.675147   7.562342
    21  S    5.868681   7.518493   7.949486   7.237369   8.314244
    22  C    6.253221   7.306032   8.001266   7.547835   7.934948
    23  H    7.348084   8.325249   9.066267   8.639369   8.903521
    24  H    5.972988   6.681253   7.489427   7.183321   7.224650
    25  H    5.978695   7.031824   7.708535   7.256455   7.669016
    26  C    6.804274   8.222880   8.713397   8.091016   8.939592
    27  H    6.966565   8.618611   8.967175   8.235010   9.396289
    28  H    6.492782   7.613911   8.187897   7.696364   8.256579
    29  H    7.818191   9.124805   9.689271   9.111575   9.790613
    30  C    2.427989   3.765716   4.201644   3.676182   4.641423
    31  H    2.431922   4.488676   4.644688   3.816723   5.458461
    32  H    3.117579   4.112915   4.678023   4.274543   4.883270
    33  H    3.170995   4.091299   4.696885   4.322528   4.845524
                    6          7          8          9         10
     6  H    0.000000
     7  O    4.349729   0.000000
     8  N    3.821463   2.308453   0.000000
     9  C    3.432750   3.581536   1.390120   0.000000
    10  N    4.551554   4.633531   2.325280   1.294890   0.000000
    11  H    6.068604   5.303543   3.148626   2.670178   1.570702
    12  H    4.576637   5.465702   3.188143   1.909258   1.015986
    13  H    2.374132   2.430125   3.236179   3.770618   5.064321
    14  P    7.795085   6.543988   4.716094   4.505823   3.546084
    15  O    7.644019   5.882438   4.433643   4.562206   3.962151
    16  O    7.102634   6.032034   4.020255   3.692161   2.602022
[...]
 097651,-0.00027265,-0.00030342,0.00009254,0.00002038,-0.00142714,0.000
 88400,0.00010407,0.00053483,0.00022455,-0.04517965,-0.01133148,0.02603
 343,-0.00130315,-0.00363394,0.01198530,0.05570343,0.00003812,0.0000150
 4,0.00000435,0.00000980,-0.00002411,-0.00000412,0.00001129,0.00002032,
 -0.00001386,-0.00001964,-0.00001483,0.00000898,0.00000175,0.00000152,0
 .00000325,0.00000184,-0.00000059,0.00000167,-0.00003599,-0.00001480,-0
 .00001985,-0.00004222,-0.00004791,-0.00002116,0.00002491,0.00009892,-0
 .00002078,0.00002396,-0.00012221,-0.00006512,-0.00010272,0.00015560,0.
 00014842,0.00000653,0.00000927,0.00000870,0.00000830,0.00000223,0.0000
 0869,-0.00027721,-0.00004526,0.00020373,0.00011400,0.00000607,-0.00007
 465,0.00013960,-0.00009123,-0.00019087,0.00008342,0.00004216,-0.000054
 73,0.00013974,0.00003996,-0.00003992,-0.00001964,-0.00000635,0.0000055
 8,-0.00003768,-0.00004393,0.00001073,0.00043756,-0.00073809,0.00217960
 ,0.00050755,0.00125616,-0.00224411,0.00000601,-0.00012460,0.00006712,0
 .00023131,0.00025080,0.00091032,0.00002371,-0.00006808,0.00005995,-0.0
 1224586,-0.09583411,0.09976079,-0.00236123,-0.01042535,0.02768301,0.01
 160145,0.09726519,0.00005656,0.00003875,-0.00007849,0.00001144,-0.0000
 3471,0.00001007,0.00001026,0.00003774,-0.00002602,-0.00004460,-0.00001
 262,0.00005416,-0.00000525,-0.00000003,0.00000202,-0.00000233,-0.00000
 098,0.00000054,-0.00003907,-0.00002606,0.00006199,-0.00007194,-0.00009
 830,0.00008411,-0.00001854,0.00013963,-0.00005445,0.00006074,-0.000107
 68,0.00000550,-0.00008224,0.00007859,0.00004402,-0.00001178,0.00000622
 ,-0.00000228,-0.00000187,-0.00000041,-0.00000436,-0.00017777,0.0001272
 5,-0.00018177,0.00003415,-0.00008881,0.00007270,0.00015079,-0.00005088
 ,0.00005721,0.00004041,-0.00001902,0.00002933,0.00008203,-0.00004615,0
 .00003065,0.00000118,0.00001148,-0.00000394,-0.00005078,-0.00002027,-0
 .00001483,-0.00843593,0.00552175,-0.00942572,0.00119540,0.00006854,0.0
 0108129,0.00003725,-0.00015888,-0.00027471,-0.00071070,-0.00103811,-0.
 00038891,0.00009932,0.00002877,0.00033482,0.03370685,0.10090220,-0.273
 37424,-0.00007722,-0.00271089,0.00507396,-0.02802334,-0.11083242,0.291
 89835,0.00016389,-0.00007640,-0.00013626,-0.00000962,-0.00004610,0.000
 03342,0.00001428,0.00003837,-0.00002959,-0.00011074,0.00002253,0.00010
 032,-0.00001221,0.00000125,0.00000910,-0.00000567,-0.00000004,0.000003
 69,-0.00009787,0.00003395,0.00010341,-0.00017070,-0.00017305,0.0002391
 0,0.00000242,0.00026986,-0.00012067,0.00005860,-0.00018060,0.00001830,
 -0.00007570,0.00014187,0.00005303,-0.00001816,0.00001370,0.00000415,0.
 00000154,-0.00001334,-0.00000280,-0.00013360,0.00035289,0.00005981,0.0
 0004676,-0.00017587,-0.00001786,0.00007004,-0.00018213,-0.00006967,0.0
 0000333,-0.00007535,0.00000373,0.00013794,-0.00012853,-0.00004923,0.00
 000541,0.00002143,0.00000311,-0.00005350,0.00000833,0.00001318,-0.0271
 2980,0.01438610,0.00313038,0.00256149,0.00120043,0.00085677,-0.0000707
 2,-0.00154372,-0.00033256,-0.00027208,-0.00033593,0.00006531,0.0003693
 8,0.00020998,-0.00014658,-0.14746782,0.09365406,0.10309182,0.00954365,
 -0.00721410,-0.00803409,-0.00093273,0.00167276,0.00224134,0.16335133,-
 0.00006171,0.00002779,0.00004236,0.00001211,-0.00000325,-0.00001114,-0
 .00000293,-0.00000090,0.00000300,0.00003704,-0.00001553,-0.00002885,0.
 00000262,0.00000052,-0.00000150,0.00000206,-0.00000080,-0.00000146,0.0
 0004147,-0.00000731,-0.00002437,0.00003923,0.00001618,-0.00003960,-0.0
 0001384,-0.00003264,0.00003360,0.00000839,-0.00000223,-0.00003246,-0.0
 0003271,0.00003112,0.00005653,0.00000656,-0.00000167,0.00000100,-0.000
 00406,0.00000670,0.00000048,-0.00016092,-0.00012678,0.00014106,0.00009
 113,0.00005993,-0.00004829,0.00005442,0.00000721,-0.00008762,0.0000676
 6,0.00005970,-0.00004218,0.00007461,0.00005232,-0.00002913,-0.00001887
 ,-0.00001348,0.00000033,-0.00001902,-0.00003373,0.00001090,0.00127922,
 -0.00050452,0.00006316,-0.00120646,0.00159060,0.00160496,0.00107038,0.
 00043193,-0.00033983,-0.00001617,-0.00009112,-0.00002479,0.00002544,-0
 .00006723,0.00001457,0.09105324,-0.13246115,-0.08422996,0.01932516,-0.
 01445114,-0.01682527,-0.00959400,0.00837517,0.00822648,-0.10199800,0.1
 3715943,0.00003719,-0.00003221,-0.00004644,-0.00000329,-0.00001682,0.0
 0001406,-0.00000003,0.00000835,-0.00000592,-0.00002687,0.00001023,0.00
 002891,-0.00000622,0.00000039,0.00000273,-0.00000241,-0.00000040,0.000
 00064,-0.00001611,0.00002403,0.00004446,-0.00005412,-0.00007579,0.0001
 3098,-0.00003082,0.00008311,-0.00003434,0.00003362,-0.00003277,0.00003
 052,-0.00002125,0.00000162,-0.00002134,-0.00000877,-0.00000090,-0.0000
 0305,-0.00000472,-0.00000470,-0.00000401,-0.00000105,0.00002364,-0.000
 10714,-0.00000021,-0.00004660,0.00002022,0.00003540,0.00001544,0.00006
 391,-0.00001005,-0.00001327,0.00002482,-0.00002960,0.00000232,0.000019
 38,0.00000732,0.00000640,-0.00000034,0.00002424,0.00000167,-0.00000926
 ,-0.01578315,0.00896274,0.00727387,0.00115166,0.00114372,0.00044438,0.
 00088197,-0.00048792,-0.00012595,-0.00000494,-0.00018263,-0.00031764,0
 .00004123,0.00037338,-0.00003354,0.09578936,-0.08371690,-0.13492148,0.
 00136436,-0.00005103,-0.00181880,0.01743048,-0.01756457,-0.01495562,-0
 .10082158,0.09151604,0.14446032,-0.01471579,0.02455565,0.00193418,0.00
 323632,0.00090758,0.00057604,-0.00117541,-0.00057932,0.00057092,0.0054
 1323,-0.00103937,0.00043205,0.00028023,0.00018377,-0.00006135,-0.00027
 037,-0.00012187,-0.00038560,-0.00407886,-0.00408205,0.00450356,-0.1403
 7714,0.02763424,0.06096833,-0.01303175,-0.00942824,0.01821049,-0.00339
 953,0.00420143,-0.00280477,0.00282042,-0.00010048,-0.00207695,-0.00054
 884,0.00087350,0.00065652,0.00061128,-0.00000139,0.00021050,0.00100446
 ,0.00087787,-0.00006915,0.00021630,-0.00086023,-0.00012172,-0.00183435
 ,-0.00007163,0.00031059,-0.00068563,-0.00022662,0.00021903,-0.00005639
 ,-0.00023505,0.00002974,0.00008375,-0.00005287,-0.00006074,0.00006493,
 0.00008788,0.00001179,-0.00070579,0.00034802,0.00040888,-0.00005744,0.
 00012771,0.00044164,-0.00001148,0.00000917,-0.00012563,-0.00007727,0.0
 0029890,0.00008563,0.00004417,-0.00003432,-0.00018265,-0.00009995,-0.0
 0007614,0.00009583,0.00000942,0.00002187,-0.00000804,-0.00010909,0.000
 05113,-0.00001870,0.00004360,-0.00001112,-0.00005312,0.52791354,0.0265
 2028,-0.00882371,-0.02308205,-0.00192629,-0.00405151,0.00511264,0.0001
 2418,-0.00286066,0.00069137,0.00245957,-0.00287176,0.00072666,-0.00128
 242,0.00073773,0.00098640,-0.00012762,0.00012766,-0.00017845,0.0018596
 2,-0.00151209,-0.00117187,0.03157646,-0.11363060,-0.01305140,-0.017107
 59,0.01214995,0.01212479,-0.00435238,-0.00193664,0.00416384,-0.0006143
 3,-0.00024399,0.00098915,-0.00050160,-0.00005441,-0.00001168,0.0010783
 7,0.00000900,-0.00065838,-0.00021632,-0.00056259,0.00020708,-0.0000080
 9,-0.00056186,-0.00043110,0.00018056,-0.00153895,-0.00055579,0.0001216
 1,0.00016583,-0.00017384,-0.00000080,0.00009065,-0.00013937,-0.0000492
 5,-0.00003409,-0.00000423,-0.00002126,0.00001164,0.00002484,0.00082497
 ,0.00025924,-0.00010041,0.00021440,0.00027901,0.00010724,-0.00016950,-
 0.00016593,0.00003708,0.00010389,-0.00033773,-0.00001571,0.00002686,-0
 .00015142,-0.00021511,0.00007231,-0.00029219,-0.00046585,-0.00004256,0
 .00000501,-0.00001286,0.00012703,-0.00005483,0.00006066,0.00020001,-0.
 00002754,0.00015052,0.02836577,0.64145537,0.00012378,-0.01849272,0.002
 96635,0.00112279,0.00205646,0.00209963,0.00053639,0.00079591,-0.001693
 74,-0.00098780,0.00498059,0.00431902,0.00044750,-0.00029048,0.00002694
 ,-0.00033813,-0.00020362,-0.00022681,0.00114795,0.00429676,-0.00300667
 ,0.06201014,-0.01011036,-0.12482023,0.02089902,0.00253174,-0.01880831,
 0.00007992,-0.00415206,-0.00207812,-0.00141975,0.00077167,0.00260959,0
 .00067790,-0.00058145,0.00005522,-0.00024374,0.00039105,0.00098612,0.0
 0027616,-0.00277048,0.00097712,0.00011771,0.00095881,0.00078117,0.0000
 5475,0.00025124,-0.00225201,0.00019788,0.00033671,-0.00038708,-0.00019
 116,0.00033597,-0.00023195,-0.00014862,-0.00010889,0.00002214,-0.00002
 212,0.00000781,0.00001691,0.00076584,-0.00012106,-0.00067497,0.0000461
 3,-0.00005370,0.00014814,-0.00013884,0.00007672,-0.00005050,0.00004797
 ,0.00016084,0.00010925,0.00001662,-0.00013050,-0.00028233,-0.00000971,
 0.00004538,0.00022439,-0.00000346,-0.00000323,-0.00003717,-0.00012088,
 0.00002206,-0.00002851,-0.00011226,0.00003492,-0.00006268,0.05768784,-
 0.03795756,0.55960757,-0.00261313,-0.00390097,0.00534071,-0.00002568,-
 0.00073503,0.00082100,-0.00008862,-0.00073377,0.00034918,0.00142762,0.
 00023674,-0.00124162,-0.00028552,0.00016455,0.00022910,0.00002534,0.00
 006673,-0.00008009,0.00080622,0.00197035,-0.00266771,-0.01359195,-0.02
 094173,0.01489588,-0.00350496,0.00378772,0.00125151,0.00071240,0.00078
 344,-0.00060304,-0.00030325,-0.00050470,-0.00012588,0.00030258,-0.0001
 1104,-0.00004395,-0.00000117,0.00004614,0.00005068,-0.00014968,-0.0000
 0208,-0.00072141,-0.00005855,-0.00018123,-0.00001307,0.00021955,0.0004
 5510,0.00041260,0.00003797,0.00003213,0.00010811,-0.00010904,0.0000603
 3,0.00013241,0.00001937,0.00000801,-0.00000780,0.00005097,-0.00001254,
 -0.00001552,-0.00074303,0.00014989,0.00029294,0.00037849,0.00017948,-0
 .00021900,-0.00005289,-0.00024650,0.00004637,0.00003070,-0.00008109,0.
 00001457,0.00000709,-0.00004615,0.00000744,-0.00013350,-0.00014865,-0.
 00022605,-0.00005668,0.00000702,0.00002754,0.00001716,0.00002211,0.000
 07183,0.00012999,-0.00004490,0.00005396,-0.07840349,-0.07443386,0.0410
 1861,0.08834881,0.00329640,0.00118837,-0.00262622,0.00018014,0.0005269
 2,-0.00042714,-0.00003990,0.00052958,-0.00015171,-0.00145873,-0.000348
 19,0.00134859,0.00023979,-0.00007122,-0.00016966,-0.00001894,-0.000064
 45,0.00008694,0.00220489,-0.00527642,-0.00054870,0.00439954,0.01185968
 ,-0.00700419,0.00235720,-0.00227582,-0.00156248,-0.00032324,-0.0003147
 1,0.00057394,-0.00005268,0.00042122,-0.00014919,-0.00010018,0.00014095
 ,0.00006216,0.00005066,0.00005239,-0.00006207,-0.00006724,0.00056833,0
 .00063080,0.00006489,-0.00025813,-0.00050097,0.00001658,-0.00056254,-0
 .00022741,-0.00002892,-0.00004883,-0.00007809,0.00016753,-0.00008823,-
 0.00013517,-0.00000651,0.00000504,0.00000921,-0.00004025,0.00000425,0.
 00002572,-0.00055809,-0.00014621,0.00018256,0.00008557,-0.00027138,-0.
 00009933,-0.00004240,0.00005777,-0.00000804,-0.00006324,0.00002583,-0.
 00001100,-0.00000702,-0.00012381,-0.00003745,0.00001206,0.00023980,0.0
 0047386,-0.00002644,-0.00002007,-0.00000707,-0.00000066,-0.00000905,-0
 .00006425,-0.00022446,0.00003290,-0.00012100,-0.08434080,-0.25079954,0
 .11814223,0.08256918,0.26604692,0.00235951,0.00320268,-0.00140527,0.00
 038703,0.00079844,-0.00036362,0.00005171,0.00047174,-0.00019024,-0.000
 44714,-0.00001893,0.00052895,0.00022757,-0.00014370,-0.00016330,-0.000
 01513,-0.00003827,0.00002025,-0.00260688,-0.00022707,0.00077140,0.0091
 9709,0.01613134,-0.01528119,0.00242657,-0.00243557,-0.00122496,0.00016
 180,-0.00024226,0.00036502,-0.00006924,0.00001763,-0.00057074,0.000037
 76,0.00006230,0.00013676,0.00001023,-0.00003887,0.00004503,-0.00023469
 ,0.00093042,0.00001281,0.00004271,-0.00060452,-0.00053058,0.00009087,-
 0.00025871,0.00026213,-0.00005723,-0.00012674,0.00005019,0.00015165,-0
 .00012933,-0.00003263,0.00003452,0.00003353,0.00000331,-0.00001110,0.0
 0000222,0.00001472,0.00092943,-0.00042021,-0.00112247,-0.00009666,0.00
 003287,0.00003109,0.00000443,0.00006578,-0.00000992,-0.00006431,0.0000
 6603,0.00000137,-0.00000972,-0.00011057,0.00000846,-0.00004061,0.00025
 479,0.00022244,-0.00001369,-0.00001782,0.00001793,-0.00009912,0.000065
 57,-0.00001615,-0.00013274,0.00000226,-0.00009194,0.04287096,0.1082444
 3,-0.11342776,-0.05434996,-0.12123062,0.12495984,-0.00056509,-0.002838
 54,0.00474360,-0.00049771,-0.00018959,-0.00076601,0.00015170,0.0005103
 5,-0.00009098,-0.00143673,0.00042831,-0.00067857,-0.00001642,-0.000048
 05,0.00000524,0.00009179,0.00004046,0.00012141,0.00119089,0.00074221,-
 0.00114522,0.00360361,0.02539340,0.02644028,0.00054974,0.00304851,-0.0
 0038698,0.00084610,-0.00165078,0.00023084,0.00044891,0.00035120,-0.000
 12805,-0.00034050,0.00001124,-0.00022241,-0.00030144,-0.00000805,0.000
 08890,0.00207722,-0.00034169,0.00187803,-0.00180684,0.00036321,-0.0007
 7385,-0.00052390,-0.00091105,-0.00038696,-0.00019539,0.00005726,-0.000
 20930,-0.00047061,0.00032592,-0.00020447,-0.00003449,-0.00014969,-0.00
 001109,-0.00007331,0.00012262,0.00000291,-0.00005614,-0.00011179,0.000
 08247,-0.00018083,-0.00018005,-0.00007603,0.00019471,0.00014739,-0.000
 05437,-0.00019902,0.00014541,-0.00003929,-0.00008063,0.00040532,0.0005
 6492,0.00002502,0.00004495,-0.00017887,0.00005864,0.00001092,0.0000085
 0,0.00005632,-0.00006430,0.00001781,0.00005723,-0.00001811,0.00006414,
 -0.08691177,-0.07153041,-0.07025488,-0.00310721,-0.00431404,-0.0073213
 4,0.09446804,-0.00089422,0.00022589,-0.00119231,0.00027198,-0.00021204
 ,-0.00042134,-0.00030936,0.00025264,0.00016965,0.00018874,-0.00070418,
 -0.00004527,0.00000830,0.00001277,0.00004038,0.00004256,0.00000491,0.0
 0001295,0.00102136,0.00004970,0.00017869,0.00327533,-0.00604218,-0.004
 93786,-0.00078157,0.00163477,0.00109736,0.00090161,-0.00074717,-0.0009
 9951,-0.00026902,0.00007739,0.00226642,-0.00015493,-0.00000655,-0.0001
 1244,0.00009699,0.00003478,-0.00003839,0.00198427,-0.00672413,0.002844
 25,-0.00060188,0.00108864,-0.00096406,-0.00046505,-0.00034630,-0.00165
 748,0.00024556,0.00069454,-0.00048902,-0.00062943,0.00080290,-0.000384
 03,-0.00035448,-0.00013368,-0.00003219,0.00004510,-0.00000070,0.000127
 21,-0.00008892,0.00009108,0.00015277,-0.00006687,0.00016403,0.00005098
 ,0.00000196,-0.00007291,0.00003635,0.00015508,0.00002374,0.00010309,0.
 00023171,0.00018570,-0.00015923,0.00001465,-0.00021957,-0.00018111,-0.
 00002402,0.00000676,-0.00000786,-0.00000128,0.00002435,0.00002025,0.00
 010975,0.00000218,0.00004090,-0.06753679,-0.17418624,-0.12224165,-0.00
 861397,-0.01375914,-0.01779918,0.06698558,0.18790704,-0.00000542,0.002
 60567,-0.00247034,0.00030921,0.00026450,0.00035613,-0.00020682,-0.0003
 0397,0.00023693,0.00059187,-0.00003970,0.00021764,-0.00000200,0.000021
 22,-0.00001099,-0.00006694,-0.00000980,-0.00007079,-0.00137288,-0.0004
 1439,0.00040110,0.00338267,-0.01437125,-0.01613383,-0.00008946,-0.0032
 4213,0.00021897,-0.00067058,0.00042821,0.00037220,-0.00036772,0.001842
 23,-0.00114987,-0.00018186,0.00020109,0.00041741,0.00015220,0.00000016
 ,-0.00000027,0.00200282,-0.00131270,0.00455539,-0.00068748,0.00079139,
 -0.00269225,-0.00045097,-0.00128833,-0.00117937,0.00016426,0.00059966,
 -0.00102496,-0.00046622,0.00028084,-0.00051545,-0.00018080,-0.00012573
 ,0.00011659,-0.00009444,0.00011073,0.00007750,-0.00008046,0.00004101,-
 0.00002225,0.00024786,-0.00003185,0.00010978,-0.00006012,-0.00003695,-
 0.00006591,-0.00019682,0.00007424,-0.00002684,0.00033779,-0.00031078,-
 0.00031832,-0.00002680,-0.00001726,0.00002545,-0.00003062,-0.00000296,
 -0.00000463,-0.00001539,0.00001348,-0.00000675,-0.00000800,0.00000046,
 -0.00001264,-0.06437787,-0.11902733,-0.16871699,0.00592260,0.01115897,
 0.01446026,0.06301183,0.13322941,0.18306943,-0.00266983,-0.00507816,0.
 00132338,0.00053144,-0.00028351,0.00021217,0.00024705,0.00077695,-0.00
 066924,-0.00036848,0.00080702,0.00108949,-0.00000655,-0.00004047,0.000
 02585,-0.00007048,-0.00005062,-0.00004318,0.00085667,0.00024995,-0.001
 36438,-0.02472429,0.01427553,-0.00346618,-0.00046712,0.00479637,-0.001
 89533,0.00087291,-0.00185578,-0.00022192,-0.00112740,-0.00162065,0.000
 34244,0.00066966,-0.00007996,-0.00013225,-0.00009669,0.00004648,0.0002
 7453,-0.00094277,-0.00043809,-0.00151015,0.00022583,-0.00032328,0.0002
 6140,0.00064849,0.00135531,0.00065181,0.00028200,0.00008947,0.00015732
 ,-0.00003934,0.00013794,0.00028002,0.00001047,0.00003787,-0.00000571,0
 .00006613,-0.00007823,-0.00002815,0.00013419,-0.00005615,-0.00005293,-
 0.00005211,0.00000805,0.00002134,-0.00001541,-0.00003379,0.00001104,0.
 00012433,0.00003449,0.00004969,0.00000426,-0.00000128,-0.00008035,0.00
 001561,-0.00003460,0.00007597,-0.00000639,0.00000517,-0.00001087,-0.00
 005093,0.00004966,-0.00004531,0.00000003,0.00001208,-0.00003661,-0.195
 19132,0.07852837,-0.11328353,0.01071411,-0.00393068,0.00658573,-0.0070
 2189,0.00521129,-0.00648344,0.21744782,0.00104572,0.00075922,0.0009112
 2,0.00044698,-0.00002783,-0.00023080,-0.00028302,0.00005605,0.00028903
 ,0.00061224,-0.00090665,-0.00020135,0.00000095,0.00001468,-0.00002282,
 0.00000351,-0.00001579,-0.00005964,0.00067508,-0.00079605,-0.00125060,
 0.00881045,-0.00707091,0.00176771,-0.00141684,0.00074265,0.00075424,-0
 .00018275,-0.00061681,-0.00070029,-0.00191432,-0.00195164,0.00038724,0
 .00030459,0.00006416,0.00024482,0.00006398,0.00003383,-0.00016570,-0.0
 0127350,-0.00038725,-0.00216914,0.00038716,-0.00053118,0.00043871,0.00
 084887,0.00035781,0.00092008,0.00033805,0.00010382,0.00028133,0.000004
 48,0.00014732,0.00043041,0.00003122,0.00005972,-0.00000803,0.00008424,
 -0.00012110,-0.00005675,0.00028140,-0.00010428,-0.00050911,-0.00001726
 ,0.00040001,-0.00009773,-0.00002594,-0.00013230,0.00010171,0.00022405,
 -0.00020756,0.00000378,-0.00001529,-0.00000095,-0.00004757,-0.00009740
 ,-0.00006825,-0.00006110,-0.00004498,-0.00001033,0.00002420,-0.0000802
 5,0.00010259,0.00004214,0.00003031,-0.00001266,-0.00001702,0.08025380,
 -0.09059282,0.06102087,0.02019932,-0.00726223,0.01346037,-0.01677809,0
 .00987098,-0.01112813,-0.09251675,0.09810372,0.00348219,0.00222485,-0.
 00252883,-0.00069918,-0.00038525,-0.00029130,0.00011571,-0.00027221,0.
 00018446,-0.00046654,-0.00104888,-0.00059921,-0.00004521,0.00004529,0.
 00000828,0.00008925,0.00004884,0.00009679,-0.00094311,-0.00005140,0.00
 144953,0.02419257,-0.01335754,0.01223079,0.00105418,-0.00132929,0.0011
 4048,-0.00003728,0.00152628,0.00002113,-0.00014481,0.00029985,0.000787
 15,-0.00016986,-0.00026140,-0.00054444,0.00017133,-0.00009910,-0.00024
 421,-0.00134774,-0.00001239,-0.00147637,0.00047252,-0.00081871,0.00018
 748,0.00082238,0.00077056,0.00023644,0.00025100,-0.00001462,0.00019311
 ,0.00023554,-0.00002347,0.00018831,0.00003592,0.00007091,-0.00000273,0
 .00001876,-0.00009267,-0.00001834,-0.00039964,0.00013309,0.00047806,-0
 .00010524,0.00007917,-0.00019033,-0.00003547,-0.00006539,0.00014193,0.
 00031583,-0.00042416,-0.00014571,-0.00008281,0.00004559,0.00001733,0.0
 0012349,-0.00006040,-0.00000316,-0.00002940,-0.00001537,0.00000429,0.0
 0011668,-0.00001983,-0.00000394,-0.00001607,0.00001433,0.00001294,-0.1
 1987820,0.06362633,-0.13816374,-0.01073193,0.00252680,-0.00748118,-0.0
 1433219,0.01129228,-0.01021232,0.11796733,-0.06435211,0.14452733\\-0.0
 0000032,-0.00000007,-0.00000242,-0.00000073,0.00000082,-0.00000121,-0.
 00000097,0.00000096,-0.00000213,-0.00000161,0.00000036,-0.00000223,-0.
 00000080,0.00000129,-0.00000084,-0.00000133,0.00000092,-0.00000244,-0.
 00000096,-0.00000030,-0.00000230,0.00012410,0.00036964,-0.00001617,-0.
 00000090,-0.00000034,-0.00000011,-0.00000021,0.00000187,0.00000028,0.0
 0000060,0.00000010,0.00000049,-0.00000012,0.00000088,0.00000036,-0.000
 00121,0.00000032,-0.00000306,0.00000088,-0.00000023,0.00000142,0.00000
 100,-0.00000140,0.00000120,0.00000002,0.00000002,0.00000152,0.00000072
 ,-0.00000042,0.00000200,0.00000112,-0.00000139,0.00000201,0.00000115,-
 0.00000147,0.00000148,0.00000146,-0.00000004,0.00000293,0.00001635,0.0
 0015388,0.00002100,0.00000015,-0.00000094,0.00000126,0.00000099,-0.000
 00101,0.00000144,0.00000079,-0.00000010,0.00000138,0.00000079,-0.00000
 133,0.00000046,-0.00000026,0.00000024,0.00000029,-0.00000016,0.0000004
 1,-0.00000006,0.00000007,0.00000081,0.00000073,0.00000044,0.00000002,0
 .00000102,-0.00014057,-0.00052329,-0.00000669,-0.00000032,-0.00000025,
 -0.00000111,0.00000009,-0.00000052,-0.00000030,-0.00000025,0.00000058,
 -0.00000022\\\@


 CONFIDENCE IS WHAT YOU FEEL BEFORE YOU FULLY
 COMPREHEND THE SITUATION.
 Job cpu time:       0 days  0 hours 46 minutes 17.3 seconds.
 File lengths (MBytes):  RWF=    370 Int=      0 D2E=      0 Chk=      8 Scr=      1
 Normal termination of Gaussian 09 at Wed Mar 24 06:28:57 2021.
