 Entering Gaussian System, Link 0=g09
 Initial command:
 /opt/software/gaussian/g09.e01/l1.exe "/localscratch/enas93.64619565.0/Gau-11165.inp" -scrdir="/localscratch/enas93.64619565.0/"
 Entering Link 1 = /opt/software/gaussian/g09.e01/l1.exe PID=     11166.
  
 Copyright (c) 1988,1990,1992,1993,1995,1998,2003,2009,2015,
            Gaussian, Inc.  All Rights Reserved.
  
 This is part of the Gaussian(R) 09 program.  It is based on
 the Gaussian(R) 03 system (copyright 2003, Gaussian, Inc.),
 the Gaussian(R) 98 system (copyright 1998, Gaussian, Inc.),
 the Gaussian(R) 94 system (copyright 1995, Gaussian, Inc.),
 the Gaussian 92(TM) system (copyright 1992, Gaussian, Inc.),
 the Gaussian 90(TM) system (copyright 1990, Gaussian, Inc.),
 the Gaussian 88(TM) system (copyright 1988, Gaussian, Inc.),
 the Gaussian 86(TM) system (copyright 1986, Carnegie Mellon
 University), and the Gaussian 82(TM) system (copyright 1983,
 Carnegie Mellon University). Gaussian is a federally registered
 trademark of Gaussian, Inc.
  
 This software contains proprietary and confidential information,
 including trade secrets, belonging to Gaussian, Inc.
  
 This software is provided under written license and may be
 used, copied, transmitted, or stored only in accord with that
 written license.
  
 The following legend is applicable only to US Government
 contracts under FAR:
  
                    RESTRICTED RIGHTS LEGEND
  
 Use, reproduction and disclosure by the US Government is
 subject to restrictions as set forth in subparagraphs (a)
 and (c) of the Commercial Computer Software - Restricted
 Rights clause in FAR 52.227-19.
  
 Gaussian, Inc.
 340 Quinnipiac St., Bldg. 40, Wallingford CT 06492
  
  
 ---------------------------------------------------------------
 Warning -- This program may not be used in any manner that
 competes with the business of Gaussian, Inc. or will provide
 assistance to any competitor of Gaussian, Inc.  The licensee
 of this program is prohibited from giving any competitor of
 Gaussian, Inc. access to this program.  By using this program,
 the user acknowledges that Gaussian, Inc. is engaged in the
 business of creating and licensing software in the field of
 computational chemistry and represents and warrants to the
 licensee that it is not a competitor of Gaussian, Inc. and that
 it will not use this program in any manner prohibited above.
 ---------------------------------------------------------------
  

 Cite this work as:
 Gaussian 09, Revision E.01,
 M. J. Frisch, G. W. Trucks, H. B. Schlegel, G. E. Scuseria, 
 M. A. Robb, J. R. Cheeseman, G. Scalmani, V. Barone, B. Mennucci, 
 G. A. Petersson, H. Nakatsuji, M. Caricato, X. Li, H. P. Hratchian, 
 A. F. Izmaylov, J. Bloino, G. Zheng, J. L. Sonnenberg, M. Hada, 
 M. Ehara, K. Toyota, R. Fukuda, J. Hasegawa, M. Ishida, T. Nakajima, 
 Y. Honda, O. Kitao, H. Nakai, T. Vreven, J. A. Montgomery, Jr., 
 J. E. Peralta, F. Ogliaro, M. Bearpark, J. J. Heyd, E. Brothers, 
 K. N. Kudin, V. N. Staroverov, T. Keith, R. Kobayashi, J. Normand, 
 K. Raghavachari, A. Rendell, J. C. Burant, S. S. Iyengar, J. Tomasi, 
 M. Cossi, N. Rega, J. M. Millam, M. Klene, J. E. Knox, J. B. Cross, 
 V. Bakken, C. Adamo, J. Jaramillo, R. Gomperts, R. E. Stratmann, 
 O. Yazyev, A. J. Austin, R. Cammi, C. Pomelli, J. W. Ochterski, 
 R. L. Martin, K. Morokuma, V. G. Zakrzewski, G. A. Voth, 
 P. Salvador, J. J. Dannenberg, S. Dapprich, A. D. Daniels, 
 O. Farkas, J. B. Foresman, J. V. Ortiz, J. Cioslowski, 
 and D. J. Fox, Gaussian, Inc., Wallingford CT, 2013.
 
 ******************************************
 Gaussian 09:  EM64L-G09RevE.01 30-Nov-2015
                25-Mar-2021 
 ******************************************
 %nprocshared=16
 Will use up to   16 processors via shared memory.
 %mem=10GB
 --------------------------------------
 # opt=tight freq b3lyp/6-31g(d) nosymm
 --------------------------------------
 1/7=10,14=-1,18=20,19=15,26=3,38=1/1,3;
 2/9=110,12=2,15=1,17=6,18=5,40=1/2;
 3/5=1,6=6,7=1,11=2,16=1,25=1,30=1,71=1,74=-5/1,2,3;
 4//1;
 5/5=2,38=5/2;
 6/7=2,8=2,9=2,10=2,28=1/1;
 7/30=1/1,2,3,16;
 1/7=10,14=-1,18=20,19=15,26=3/3(2);
 2/9=110,15=1/2;
 99//99;
 2/9=110,15=1/2;
 3/5=1,6=6,7=1,11=2,16=1,25=1,30=1,71=1,74=-5/1,2,3;
 4/5=5,16=3,69=1/1;
 5/5=2,38=5/2;
 7/30=1/1,2,3,16;
 1/7=10,14=-1,18=20,19=15,26=3/3(-5);
 2/9=110,15=1/2;
 6/7=2,8=2,9=2,10=2,19=2,28=1/1;
 99/9=1/99;
 -------------------
 Title Card Required
 -------------------
 Symbolic Z-matrix:
 Charge =  0 Multiplicity = 1
 C                    -1.23639   3.36139   2.75413 
 C                    -3.13268   3.03959   0.67378 
 C                    -3.285     4.00824   1.59838 
 N                    -2.36326   4.16793   2.59947 
 H                    -3.85241   2.91364  -0.1252 
 H                    -4.11882   4.70151   1.60286 
 O                    -0.45308   3.55328   3.66788 
 N                    -1.10385   2.35133   1.80211 
 C                    -1.97816   2.15531   0.72358 
 N                    -1.71626   1.22106  -0.13754 
 H                    -0.20382   0.36927  -0.63131 
 H                    -2.44675   1.19587  -0.84862 
 H                    -2.45254   4.89502   3.29547 
 C                    -0.28833  -1.7084   -2.04301 
 H                    -1.05723  -1.84173  -1.26863 
 C                     0.05683  -3.03778  -2.71799 
 C                     0.93995  -1.06119  -1.4107 
 H                     0.92617  -2.88762  -3.36913 
 H                     0.37429  -3.76484  -1.96099 
 C                    -1.10278  -3.62204  -3.54989 
 O                     0.74875   0.09406  -0.76428 
 O                     2.05365  -1.54072  -1.49722 
 H                    -1.97106  -3.75648  -2.88366 
 C                    -0.70582  -5.01668  -4.03054 
 O                    -0.62728  -5.33009  -5.19833 
 N                    -1.48869  -2.71458  -4.62641 
 H                    -0.72818  -2.6905   -5.30734 
 H                    -2.27244  -3.12172  -5.13636 
 H                    -0.71605  -1.01799  -2.78045 
 H                    -0.47248  -5.75001  -3.22454 
 S                     3.03242  -0.54334   2.57772 
 C                     3.85598   0.04612   1.057 
 H                     3.43206  -0.5128    0.21857 
 H                     3.65923   1.1115    0.89883 
 H                     4.93613  -0.12463   1.10746 
 C                     0.04762   1.44925   1.95152 
 H                    -0.2953    0.41462   1.91465 
 H                     0.51408   1.6591    2.90933 
 H                     0.76332   1.60118   1.14289 
 C                     3.75997   0.60969   3.79401 
 H                     3.34518   0.35604   4.7735 
 H                     4.84916   0.50729   3.83721 
 H                     3.50121   1.64816   3.56141 
 
 Add virtual bond connecting atoms H11        and N10        Dist= 3.41D+00.
 Add virtual bond connecting atoms H33        and O22        Dist= 4.59D+00.

 GradGradGradGradGradGradGradGradGradGradGradGradGradGradGradGradGradGrad
 Berny optimization.
 Initialization pass.
                           ----------------------------
                           !    Initial Parameters    !
                           ! (Angstroms and Degrees)  !
 --------------------------                            --------------------------
 ! Name  Definition              Value          Derivative Info.                !
 --------------------------------------------------------------------------------
 ! R1    R(1,4)                  1.3944         estimate D2E/DX2                !
 ! R2    R(1,7)                  1.2187         estimate D2E/DX2                !
 ! R3    R(1,8)                  1.3943         estimate D2E/DX2                !
 ! R4    R(2,3)                  1.3477         estimate D2E/DX2                !
 ! R5    R(2,5)                  1.0827         estimate D2E/DX2                !
 ! R6    R(2,9)                  1.4551         estimate D2E/DX2                !
 ! R7    R(3,4)                  1.3701         estimate D2E/DX2                !
 ! R8    R(3,6)                  1.0844         estimate D2E/DX2                !
 ! R9    R(4,13)                 1.0105         estimate D2E/DX2                !
 ! R10   R(8,9)                  1.4022         estimate D2E/DX2                !
 ! R11   R(8,36)                 1.4704         estimate D2E/DX2                !
 ! R12   R(9,10)                 1.2973         estimate D2E/DX2                !
 ! R13   R(10,11)                1.8047         estimate D2E/DX2                !
 ! R14   R(10,12)                1.0197         estimate D2E/DX2                !
 ! R15   R(11,21)                1.0004         estimate D2E/DX2                !
 ! R16   R(14,15)                1.0994         estimate D2E/DX2                !
 ! R17   R(14,16)                1.5304         estimate D2E/DX2                !
 ! R18   R(14,17)                1.5256         estimate D2E/DX2                !
 ! R19   R(14,29)                1.097          estimate D2E/DX2                !
 ! R20   R(16,18)                1.0965         estimate D2E/DX2                !
 ! R21   R(16,19)                1.0966         estimate D2E/DX2                !
 ! R22   R(16,20)                1.5421         estimate D2E/DX2                !
 ! R23   R(17,21)                1.3375         estimate D2E/DX2                !
 ! R24   R(17,22)                1.2156         estimate D2E/DX2                !
 ! R25   R(20,23)                1.1026         estimate D2E/DX2                !
 ! R26   R(20,24)                1.5276         estimate D2E/DX2                !
 ! R27   R(20,26)                1.4599         estimate D2E/DX2                !
 ! R28   R(22,33)                2.4291         estimate D2E/DX2                !
 ! R29   R(24,25)                1.2117         estimate D2E/DX2                !
 ! R30   R(24,30)                1.1144         estimate D2E/DX2                !
 ! R31   R(26,27)                1.0211         estimate D2E/DX2                !
 ! R32   R(26,28)                1.0198         estimate D2E/DX2                !
 ! R33   R(31,32)                1.8271         estimate D2E/DX2                !
 ! R34   R(31,40)                1.8271         estimate D2E/DX2                !
 ! R35   R(32,33)                1.0932         estimate D2E/DX2                !
 ! R36   R(32,34)                1.0949         estimate D2E/DX2                !
 ! R37   R(32,35)                1.0947         estimate D2E/DX2                !
 ! R38   R(36,37)                1.0906         estimate D2E/DX2                !
 ! R39   R(36,38)                1.0858         estimate D2E/DX2                !
 ! R40   R(36,39)                1.0905         estimate D2E/DX2                !
 ! R41   R(40,41)                1.0935         estimate D2E/DX2                !
 ! R42   R(40,42)                1.0948         estimate D2E/DX2                !
 ! R43   R(40,43)                1.0952         estimate D2E/DX2                !
 ! A1    A(4,1,7)              120.7642         estimate D2E/DX2                !
 ! A2    A(4,1,8)              114.8413         estimate D2E/DX2                !
 ! A3    A(7,1,8)              124.3938         estimate D2E/DX2                !
 ! A4    A(3,2,5)              120.9808         estimate D2E/DX2                !
 ! A5    A(3,2,9)              120.1965         estimate D2E/DX2                !
 ! A6    A(5,2,9)              118.8154         estimate D2E/DX2                !
 ! A7    A(2,3,4)              120.5969         estimate D2E/DX2                !
 ! A8    A(2,3,6)              123.3141         estimate D2E/DX2                !
 ! A9    A(4,3,6)              116.0884         estimate D2E/DX2                !
 ! A10   A(1,4,3)              123.8694         estimate D2E/DX2                !
 ! A11   A(1,4,13)             114.281          estimate D2E/DX2                !
 ! A12   A(3,4,13)             121.8496         estimate D2E/DX2                !
 ! A13   A(1,8,9)              124.5544         estimate D2E/DX2                !
 ! A14   A(1,8,36)             116.7113         estimate D2E/DX2                !
 ! A15   A(9,8,36)             118.7312         estimate D2E/DX2                !
 ! A16   A(2,9,8)              115.8553         estimate D2E/DX2                !
 ! A17   A(2,9,10)             125.107          estimate D2E/DX2                !
 ! A18   A(8,9,10)             119.0372         estimate D2E/DX2                !
 ! A19   A(9,10,11)            133.687          estimate D2E/DX2                !
 ! A20   A(9,10,12)            109.6361         estimate D2E/DX2                !
 ! A21   A(11,10,12)           113.4465         estimate D2E/DX2                !
 ! A22   A(10,11,21)           164.6238         estimate D2E/DX2                !
 ! A23   A(15,14,16)           111.2886         estimate D2E/DX2                !
 ! A24   A(15,14,17)           108.8207         estimate D2E/DX2                !
 ! A25   A(15,14,29)           106.0891         estimate D2E/DX2                !
 ! A26   A(16,14,17)           111.7002         estimate D2E/DX2                !
 ! A27   A(16,14,29)           109.7644         estimate D2E/DX2                !
 ! A28   A(17,14,29)           108.9978         estimate D2E/DX2                !
 ! A29   A(14,16,18)           108.7704         estimate D2E/DX2                !
 ! A30   A(14,16,19)           109.6806         estimate D2E/DX2                !
 ! A31   A(14,16,20)           113.4186         estimate D2E/DX2                !
 ! A32   A(18,16,19)           105.7366         estimate D2E/DX2                !
 ! A33   A(18,16,20)           109.1306         estimate D2E/DX2                !
 ! A34   A(19,16,20)           109.8102         estimate D2E/DX2                !
 ! A35   A(14,17,21)           116.8491         estimate D2E/DX2                !
 ! A36   A(14,17,22)           122.7359         estimate D2E/DX2                !
 ! A37   A(21,17,22)           120.402          estimate D2E/DX2                !
 ! A38   A(16,20,23)           108.2031         estimate D2E/DX2                !
 ! A39   A(16,20,24)           108.676          estimate D2E/DX2                !
 ! A40   A(16,20,26)           111.1654         estimate D2E/DX2                !
 ! A41   A(23,20,24)           106.4641         estimate D2E/DX2                !
 ! A42   A(23,20,26)           108.251          estimate D2E/DX2                !
 ! A43   A(24,20,26)           113.8381         estimate D2E/DX2                !
 ! A44   A(11,21,17)           115.973          estimate D2E/DX2                !
 ! A45   A(17,22,33)           107.6185         estimate D2E/DX2                !
 ! A46   A(20,24,25)           123.7955         estimate D2E/DX2                !
 ! A47   A(20,24,30)           115.316          estimate D2E/DX2                !
 ! A48   A(25,24,30)           120.8841         estimate D2E/DX2                !
 ! A49   A(20,26,27)           108.0306         estimate D2E/DX2                !
 ! A50   A(20,26,28)           108.8872         estimate D2E/DX2                !
 ! A51   A(27,26,28)           104.3795         estimate D2E/DX2                !
 ! A52   A(32,31,40)            99.8452         estimate D2E/DX2                !
 ! A53   A(31,32,33)           107.374          estimate D2E/DX2                !
 ! A54   A(31,32,34)           110.6811         estimate D2E/DX2                !
 ! A55   A(31,32,35)           110.859          estimate D2E/DX2                !
 ! A56   A(33,32,34)           108.4827         estimate D2E/DX2                !
 ! A57   A(33,32,35)           109.7683         estimate D2E/DX2                !
 ! A58   A(34,32,35)           109.6174         estimate D2E/DX2                !
 ! A59   A(8,36,37)            109.4116         estimate D2E/DX2                !
 ! A60   A(8,36,38)            107.9077         estimate D2E/DX2                !
 ! A61   A(8,36,39)            110.6793         estimate D2E/DX2                !
 ! A62   A(37,36,38)           110.3799         estimate D2E/DX2                !
 ! A63   A(37,36,39)           108.2679         estimate D2E/DX2                !
 ! A64   A(38,36,39)           110.1964         estimate D2E/DX2                !
 ! A65   A(31,40,41)           107.3894         estimate D2E/DX2                !
 ! A66   A(31,40,42)           111.3088         estimate D2E/DX2                !
 ! A67   A(31,40,43)           111.2802         estimate D2E/DX2                !
 ! A68   A(41,40,42)           108.6819         estimate D2E/DX2                !
 ! A69   A(41,40,43)           108.6963         estimate D2E/DX2                !
 ! A70   A(42,40,43)           109.3964         estimate D2E/DX2                !
 ! A71   L(22,33,32,1,-1)      168.0593         estimate D2E/DX2                !
 ! A72   L(22,33,32,1,-2)      178.7525         estimate D2E/DX2                !
 ! D1    D(7,1,4,3)           -179.9028         estimate D2E/DX2                !
 ! D2    D(7,1,4,13)             0.0819         estimate D2E/DX2                !
 ! D3    D(8,1,4,3)             -0.1745         estimate D2E/DX2                !
 ! D4    D(8,1,4,13)           179.8102         estimate D2E/DX2                !
 ! D5    D(4,1,8,9)              2.5342         estimate D2E/DX2                !
 ! D6    D(4,1,8,36)          -178.1129         estimate D2E/DX2                !
 ! D7    D(7,1,8,9)           -177.7487         estimate D2E/DX2                !
 ! D8    D(7,1,8,36)             1.6042         estimate D2E/DX2                !
 ! D9    D(5,2,3,4)           -179.4332         estimate D2E/DX2                !
 ! D10   D(5,2,3,6)              0.2894         estimate D2E/DX2                !
 ! D11   D(9,2,3,4)             -0.429          estimate D2E/DX2                !
 ! D12   D(9,2,3,6)            179.2936         estimate D2E/DX2                !
 ! D13   D(3,2,9,8)              2.4963         estimate D2E/DX2                !
 ! D14   D(3,2,9,10)          -177.788          estimate D2E/DX2                !
 ! D15   D(5,2,9,8)           -178.4781         estimate D2E/DX2                !
 ! D16   D(5,2,9,10)             1.2376         estimate D2E/DX2                !
 ! D17   D(2,3,4,1)             -0.8044         estimate D2E/DX2                !
 ! D18   D(2,3,4,13)           179.212          estimate D2E/DX2                !
 ! D19   D(6,3,4,1)            179.4537         estimate D2E/DX2                !
 ! D20   D(6,3,4,13)            -0.5298         estimate D2E/DX2                !
 ! D21   D(1,8,9,2)             -3.6591         estimate D2E/DX2                !
 ! D22   D(1,8,9,10)           176.6069         estimate D2E/DX2                !
 ! D23   D(36,8,9,2)           177.0001         estimate D2E/DX2                !
 ! D24   D(36,8,9,10)           -2.7339         estimate D2E/DX2                !
 ! D25   D(1,8,36,37)          129.0732         estimate D2E/DX2                !
 ! D26   D(1,8,36,38)            8.9475         estimate D2E/DX2                !
 ! D27   D(1,8,36,39)         -111.7012         estimate D2E/DX2                !
 ! D28   D(9,8,36,37)          -51.5346         estimate D2E/DX2                !
 ! D29   D(9,8,36,38)         -171.6603         estimate D2E/DX2                !
 ! D30   D(9,8,36,39)           67.691          estimate D2E/DX2                !
 ! D31   D(2,9,10,11)          157.1578         estimate D2E/DX2                !
 ! D32   D(2,9,10,12)           -0.514          estimate D2E/DX2                !
 ! D33   D(8,9,10,11)          -23.1348         estimate D2E/DX2                !
 ! D34   D(8,9,10,12)          179.1934         estimate D2E/DX2                !
 ! D35   D(9,10,11,21)         -12.1689         estimate D2E/DX2                !
 ! D36   D(12,10,11,21)        144.8752         estimate D2E/DX2                !
 ! D37   D(10,11,21,17)        174.8887         estimate D2E/DX2                !
 ! D38   D(15,14,16,18)       -171.5257         estimate D2E/DX2                !
 ! D39   D(15,14,16,19)        -56.3259         estimate D2E/DX2                !
 ! D40   D(15,14,16,20)         66.8463         estimate D2E/DX2                !
 ! D41   D(17,14,16,18)        -49.6751         estimate D2E/DX2                !
 ! D42   D(17,14,16,19)         65.5247         estimate D2E/DX2                !
 ! D43   D(17,14,16,20)       -171.3031         estimate D2E/DX2                !
 ! D44   D(29,14,16,18)         71.3414         estimate D2E/DX2                !
 ! D45   D(29,14,16,19)       -173.4588         estimate D2E/DX2                !
 ! D46   D(29,14,16,20)        -50.2866         estimate D2E/DX2                !
 ! D47   D(15,14,17,21)        -55.2504         estimate D2E/DX2                !
 ! D48   D(15,14,17,22)        126.0527         estimate D2E/DX2                !
 ! D49   D(16,14,17,21)       -178.5123         estimate D2E/DX2                !
 ! D50   D(16,14,17,22)          2.7908         estimate D2E/DX2                !
 ! D51   D(29,14,17,21)         60.0266         estimate D2E/DX2                !
 ! D52   D(29,14,17,22)       -118.6703         estimate D2E/DX2                !
 ! D53   D(14,16,20,23)        -57.9692         estimate D2E/DX2                !
 ! D54   D(14,16,20,24)       -173.1883         estimate D2E/DX2                !
 ! D55   D(14,16,20,26)         60.7717         estimate D2E/DX2                !
 ! D56   D(18,16,20,23)       -179.3955         estimate D2E/DX2                !
 ! D57   D(18,16,20,24)         65.3853         estimate D2E/DX2                !
 ! D58   D(18,16,20,26)        -60.6547         estimate D2E/DX2                !
 ! D59   D(19,16,20,23)         65.1318         estimate D2E/DX2                !
 ! D60   D(19,16,20,24)        -50.0873         estimate D2E/DX2                !
 ! D61   D(19,16,20,26)       -176.1274         estimate D2E/DX2                !
 ! D62   D(14,17,21,11)          8.8053         estimate D2E/DX2                !
 ! D63   D(22,17,21,11)       -172.4656         estimate D2E/DX2                !
 ! D64   D(14,17,22,33)       -162.7087         estimate D2E/DX2                !
 ! D65   D(21,17,22,33)         18.6393         estimate D2E/DX2                !
 ! D66   D(16,20,24,25)       -119.7842         estimate D2E/DX2                !
 ! D67   D(16,20,24,30)         59.4532         estimate D2E/DX2                !
 ! D68   D(23,20,24,25)        123.8729         estimate D2E/DX2                !
 ! D69   D(23,20,24,30)        -56.8896         estimate D2E/DX2                !
 ! D70   D(26,20,24,25)          4.6894         estimate D2E/DX2                !
 ! D71   D(26,20,24,30)       -176.0731         estimate D2E/DX2                !
 ! D72   D(16,20,26,27)         68.7763         estimate D2E/DX2                !
 ! D73   D(16,20,26,28)       -178.4311         estimate D2E/DX2                !
 ! D74   D(23,20,26,27)       -172.5116         estimate D2E/DX2                !
 ! D75   D(23,20,26,28)        -59.719          estimate D2E/DX2                !
 ! D76   D(24,20,26,27)        -54.3495         estimate D2E/DX2                !
 ! D77   D(24,20,26,28)         58.4431         estimate D2E/DX2                !
 ! D78   D(17,22,32,31)         64.9603         estimate D2E/DX2                !
 ! D79   D(17,22,32,34)        -50.6819         estimate D2E/DX2                !
 ! D80   D(17,22,32,35)       -172.385          estimate D2E/DX2                !
 ! D81   D(40,31,32,33)       -174.8911         estimate D2E/DX2                !
 ! D82   D(40,31,32,34)        -56.6513         estimate D2E/DX2                !
 ! D83   D(40,31,32,35)         65.2105         estimate D2E/DX2                !
 ! D84   D(32,31,40,41)       -179.6649         estimate D2E/DX2                !
 ! D85   D(32,31,40,42)        -60.8197         estimate D2E/DX2                !
 ! D86   D(32,31,40,43)         61.4889         estimate D2E/DX2                !
 --------------------------------------------------------------------------------
 Trust Radius=3.00D-01 FncErr=1.00D-07 GrdErr=1.00D-06
 Number of steps in this run=    211 maximum allowed number of steps=    258.
 GradGradGradGradGradGradGradGradGradGradGradGradGradGradGradGradGradGrad

                          Input orientation:                          
 ---------------------------------------------------------------------
 Center     Atomic      Atomic             Coordinates (Angstroms)
 Number     Number       Type             X           Y           Z
 ---------------------------------------------------------------------
      1          6           0       -1.236385    3.361392    2.754126
      2          6           0       -3.132685    3.039590    0.673781
      3          6           0       -3.284997    4.008244    1.598379
      4          7           0       -2.363262    4.167934    2.599465
      5          1           0       -3.852408    2.913639   -0.125195
      6          1           0       -4.118819    4.701508    1.602858
      7          8           0       -0.453081    3.553279    3.667878
      8          7           0       -1.103846    2.351328    1.802110
      9          6           0       -1.978155    2.155306    0.723577
     10          7           0       -1.716261    1.221062   -0.137541
     11          1           0       -0.203823    0.369267   -0.631312
     12          1           0       -2.446746    1.195867   -0.848619
     13          1           0       -2.452543    4.895018    3.295473
     14          6           0       -0.288330   -1.708401   -2.043007
     15          1           0       -1.057235   -1.841727   -1.268629
     16          6           0        0.056826   -3.037784   -2.717990
     17          6           0        0.939948   -1.061188   -1.410701
     18          1           0        0.926173   -2.887624   -3.369134
     19          1           0        0.374291   -3.764842   -1.960994
     20          6           0       -1.102784   -3.622035   -3.549885
     21          8           0        0.748748    0.094063   -0.764275
     22          8           0        2.053651   -1.540719   -1.497217
     23          1           0       -1.971055   -3.756481   -2.883663
     24          6           0       -0.705818   -5.016685   -4.030541
     25          8           0       -0.627284   -5.330088   -5.198333
     26          7           0       -1.488686   -2.714575   -4.626410
     27          1           0       -0.728178   -2.690500   -5.307341
     28          1           0       -2.272435   -3.121718   -5.136357
     29          1           0       -0.716047   -1.017987   -2.780445
     30          1           0       -0.472476   -5.750006   -3.224543
     31         16           0        3.032420   -0.543338    2.577715
     32          6           0        3.855980    0.046122    1.057003
     33          1           0        3.432062   -0.512803    0.218568
     34          1           0        3.659226    1.111501    0.898833
     35          1           0        4.936133   -0.124625    1.107455
     36          6           0        0.047622    1.449250    1.951520
     37          1           0       -0.295296    0.414617    1.914646
     38          1           0        0.514078    1.659099    2.909330
     39          1           0        0.763317    1.601181    1.142886
     40          6           0        3.759965    0.609685    3.794005
     41          1           0        3.345175    0.356036    4.773503
     42          1           0        4.849158    0.507287    3.837208
     43          1           0        3.501210    1.648163    3.561408
 ---------------------------------------------------------------------
                    Distance matrix (angstroms):
                    1          2          3          4          5
     1  C    0.000000
     2  C    2.833257   0.000000
     3  C    2.439463   1.347728   0.000000
     4  N    1.394375   2.360811   1.370135   0.000000
     5  H    3.915935   1.082695   2.119156   3.348818   0.000000
     6  H    3.380792   2.144205   1.084387   2.088039   2.500723
     7  O    1.218741   4.050774   3.536887   2.273345   5.133417
     8  N    1.394321   2.421367   2.746688   2.349885   3.403717
     9  C    2.475479   1.455121   2.430328   2.778117   2.192785
    10  N    3.629467   2.443674   3.639057   4.073557   2.725453
    11  H    4.634672   4.172784   5.263773   5.434240   4.476847
    12  H    4.374271   2.487474   3.820985   4.552959   2.334517
    13  H    2.030789   3.283059   2.087936   1.010470   4.193621
    14  C    7.043727   6.165607   7.410785   7.771049   6.143607
    15  H    6.579293   5.648691   6.885116   7.265252   5.633288
    16  C    8.518562   7.655819   8.913211   9.276558   7.577871
    17  C    6.453017   6.143923   7.252852   7.371319   6.357551
    18  H    9.012279   8.243261   9.484890   9.809457   8.186124
    19  H    8.695392   8.095753   9.299483   9.550964   8.114016
    20  C    9.408861   8.144759   9.459801  10.004345   7.874260
    21  O    5.195704   5.080321   6.097052   6.131540   5.434066
    22  O    7.275228   7.251934   8.299088   8.299436   7.523648
    23  H    9.109804   7.758310   9.061242   9.644422   7.459165
    24  C   10.793766   9.639704  10.944690  11.448202   9.383112
    25  O   11.796374  10.526646  11.851716  12.410951  10.202803
    26  N    9.563124   7.994071   9.336543  10.017339   7.584518
    27  H   10.093113   8.624929   9.954871  10.593828   8.247534
    28  H   10.264689   8.512312   9.859935  10.629686   8.002099
    29  H    7.076806   5.851132   7.143991   7.651832   5.687249
    30  H   10.924542   9.976504  11.242522  11.655886   9.802481
    31  S    5.787982   7.380437   7.847659   7.163096   8.164390
    32  C    6.308995   7.612434   8.184440   7.618891   8.309001
    33  H    6.575168   7.478143   8.213564   7.820726   8.057430
    34  H    5.698344   7.063868   7.556634   6.964502   7.792367
    35  H    7.277625   8.677912   9.214586   8.598449   9.380241
    36  C    2.439085   3.778379   4.216575   3.690994   4.654827
    37  H    3.205286   4.059680   4.685349   4.339683   4.801990
    38  H    2.446632   4.494699   4.655110   3.830059   5.463370
    39  H    3.113398   4.179463   4.731836   4.299458   4.963415
    40  C    5.797996   7.946626   8.124190   7.182059   8.866598
    41  H    5.839584   8.122306   8.208484   7.200226   9.074347
    42  H    6.808290   8.951516   9.134196   8.182380   9.859433
    43  H    5.102124   7.367701   7.448226   6.454968   8.322750
                    6          7          8          9         10
     6  H    0.000000
     7  O    4.361235   0.000000
     8  N    3.827938   2.312849   0.000000
     9  C    3.440744   3.598484   1.402168   0.000000
    10  N    4.573268   4.638542   2.326972   1.297276   0.000000
    11  H    6.251961   5.355660   3.264988   2.859006   1.804670
    12  H    4.592939   5.470908   3.188234   1.900500   1.019743
    13  H    2.383037   2.436554   3.243374   3.787574   5.081894
    14  C    8.309748   7.767022   5.650787   5.043583   3.775121
    15  H    7.773845   7.337588   5.197434   4.559962   3.330818
    16  C    9.798080   9.191378   7.128884   6.553908   5.285861
    17  C    8.239012   7.001843   5.113171   4.839039   3.726265
    18  H   10.381116   9.638833   7.636057   7.114531   5.857214
    19  H   10.225857   9.269500   7.331669   6.912964   5.705666
    20  C   10.243466  10.198203   8.020282   7.239228   5.956176
    21  O    7.108099   5.749309   3.887632   3.728059   2.781940
    22  O    9.309954   7.675332   6.000281   5.903218   4.867072
    23  H    9.812204   9.932750   7.746861   6.925421   5.690522
    24  C   11.739976  11.522752   9.405629   8.698157   7.421990
    25  O   12.612689  12.552062  10.403724   9.639761   8.349554
    26  N   10.035919  10.447664   8.193738   7.251047   5.974192
    27  H   10.671883  10.936865   8.723844   7.836852   6.557702
    28  H   10.489472  11.197329   8.914155   7.891287   6.645091
    29  H    7.968992   7.908634   5.701095   4.892941   3.605372
    30  H   12.076165  11.578297   9.554972   8.963742   7.724789
    31  S    8.921826   5.488118   5.107774   5.985513   5.747669
    32  C    9.250297   6.138797   5.519876   6.212645   5.818702
    33  H    9.280146   6.597355   5.593328   6.053453   5.444110
    34  H    8.595451   5.526388   5.003992   5.735879   5.475576
    35  H   10.272738   7.009021   6.564620   7.290598   6.900379
    36  C    5.296978   2.761073   1.470356   2.471868   2.743634
    37  H    5.752736   3.598599   2.101730   2.698269   2.623160
    38  H    5.694458   2.258032   2.079133   3.351860   3.801278
    39  H    5.801625   3.415537   2.117450   2.828170   2.816432
    40  C    9.144363   5.141051   5.536933   6.688983   6.769039
    41  H    9.200398   5.086405   5.710005   6.926551   7.105263
    42  H   10.149306   6.117228   6.555941   7.682634   7.707972
    43  H    8.439412   4.390583   4.979569   6.191439   6.409886
                   11         12         13         14         15
    11  H    0.000000
    12  H    2.400249   0.000000
    13  H    6.399907   5.554930   0.000000
    14  C    2.513310   3.810524   8.762895   0.000000
    15  H    2.454176   3.366619   8.256007   1.099387   0.000000
    16  C    4.003768   5.261770  10.265867   1.530357   2.184567
    17  C    1.990442   4.108519   8.314653   1.525570   2.148992
    18  H    4.402261   5.865533  10.788986   2.150395   3.072447
    19  H    4.380996   5.814143  10.517348   2.162115   2.495397
    20  C    5.025604   5.684651  11.010039   2.568270   2.894080
    21  O    1.000404   3.381164   7.055423   2.441222   2.695038
    22  O    3.081238   5.306897   9.202955   2.410576   3.133763
    23  H    5.021752   5.375262  10.642462   2.780809   2.666399
    24  C    6.388680   7.193835  12.448429   3.881924   4.222796
    25  O    7.315712   8.050996  13.417492   4.815349   5.272200
    26  N    5.207856   5.520973  11.026838   3.021128   3.496099
    27  H    5.612697   6.159345  11.598359   3.437130   4.140035
    28  H    6.063131   6.087415  11.635990   3.937379   4.251401
    29  H    2.608758   3.410047   8.654237   1.097009   1.755148
    30  H    6.651505   7.601836  12.639138   4.214796   4.409330
    31  S    4.648007   6.692224   7.757301   5.808255   5.762417
    32  C    4.408722   6.684135   8.265591   5.464771   5.754322
    33  H    3.836666   6.214405   8.563904   4.515030   4.912391
    34  H    4.220830   6.351661   7.577111   5.673576   5.971972
    35  H    5.448522   7.750924   9.196563   6.303076   6.671932
    36  C    2.810802   3.758571   4.464342   5.102928   4.735039
    37  H    2.548004   3.588136   5.160852   4.491133   3.975535
    38  H    3.836039   4.806583   4.406940   6.042314   5.672755
    39  H    2.366590   3.799326   5.081806   4.712665   4.580767
    40  C    5.945826   7.773084   7.563588   7.472143   7.405748
    41  H    6.465879   8.115413   7.510024   7.995565   7.792223
    42  H    6.746802   8.698352   8.535836   8.116649   8.153092
    43  H    5.739490   7.418294   6.786749   7.552258   7.502534
                   16         17         18         19         20
    16  C    0.000000
    17  C    2.529000   0.000000
    18  H    1.096495   2.677969   0.000000
    19  H    1.096558   2.816476   1.748412   0.000000
    20  C    1.542107   3.912391   2.165340   2.174102   0.000000
    21  O    3.755559   1.337546   3.963234   4.057524   4.999718
    22  O    2.778273   1.215635   2.566989   2.825254   4.302139
    23  H    2.157840   4.231803   3.063417   2.520325   1.102643
    24  C    2.494086   5.021759   2.762925   2.648919   1.527632
    25  O    3.445978   5.918267   3.424154   3.732762   2.420935
    26  N    2.476921   4.355770   2.728046   3.417336   1.459901
    27  H    2.727925   4.541047   2.555852   3.683434   2.024040
    28  H    3.358720   5.333451   3.661826   4.183503   2.033542
    29  H    2.163519   2.149508   2.557144   3.066847   2.742749
    30  H    2.809431   5.222067   3.189100   2.500889   2.243077
    31  S    6.566652   4.533660   6.730302   6.167951   8.007857
    32  C    6.180180   3.977303   6.064761   5.979457   7.698580
    33  H    5.137229   3.027520   4.979042   4.967516   6.665838
    34  H    6.578393   4.177200   6.455859   6.538205   8.054452
    35  H    6.850413   4.815366   6.614665   6.593706   8.389947
    36  C    6.475946   4.289880   6.920237   6.526962   7.570127
    37  H    5.788297   3.842104   6.349418   5.739060   6.841615
    38  H    7.344149   5.122889   7.762836   7.291004   8.498593
    39  H    6.076635   3.693266   6.366649   6.211249   7.265426
    40  C    8.332067   6.150876   8.460030   7.982436   9.771720
    41  H    8.857410   6.785132   9.092603   8.435712  10.241493
    42  H    8.860282   6.729234   8.879561   8.479072  10.346306
    43  H    8.558780   6.214701   8.673903   8.341173   9.977086
                   21         22         23         24         25
    21  O    0.000000
    22  O    2.216413   0.000000
    23  H    5.168735   4.798968   0.000000
    24  C    6.237307   5.110258   2.122326   0.000000
    25  O    7.139730   5.936749   3.104780   1.211663   0.000000
    26  N    5.273580   4.870107   2.086963   2.503528   2.812475
    27  H    5.529426   4.855679   2.924940   2.653649   2.643764
    28  H    6.211594   5.870087   2.359742   2.695926   2.754498
    29  H    2.728960   3.096958   3.014141   4.189562   4.944520
    30  H    6.457356   5.204140   2.517157   1.114379   2.023893
    31  S    4.097601   4.307880   8.073766   8.812168   9.837344
    32  C    3.601978   3.505780   7.996435   8.504418   9.387892
    33  H    2.921377   2.429104   7.024170   7.447277   8.308269
    34  H    3.503140   3.918316   8.348927   8.994832   9.851075
    35  H    4.591883   4.135014   8.765195   9.064373   9.889965
    36  C    3.115069   4.985765   7.386047   8.840873   9.875997
    37  H    2.892992   4.580579   6.574952   8.063053   9.149116
    38  H    3.999973   5.659221   8.310425   9.706495  10.765019
    39  H    2.430819   4.301935   7.238400   8.527535   9.496700
    40  C    5.487368   5.960937   9.823403  10.621807  11.635764
    41  H    6.121850   6.677398  10.188586  11.080969  12.147014
    42  H    6.177197   6.361232  10.481657  11.102860  12.070931
    43  H    5.357500   6.152567  10.034680  10.943353  11.936227
                   26         27         28         29         30
    26  N    0.000000
    27  H    1.021087   0.000000
    28  H    1.019840   1.612425   0.000000
    29  H    2.623541   3.030289   3.521129   0.000000
    30  H    3.494532   3.709988   3.715210   4.759050   0.000000
    31  S    8.778046   8.995916   9.710635   6.556384   8.547508
    32  C    8.275753   8.307134   9.270943   6.063148   8.406085
    33  H    7.248129   7.251595   8.247602   5.143549   7.384357
    34  H    8.465705   8.498301   9.461938   6.100395   9.008522
    35  H    8.992405   8.934078   9.996560   6.918165   8.925479
    36  C    7.935165   8.392286   8.747252   5.390913   8.882084
    37  H    7.348567   7.873134   8.132121   4.926791   8.027779
    38  H    8.940216   9.379547   9.764934   6.407303   9.669153
    39  H    7.548645   7.889773   8.423209   4.943793   8.639535
    40  C   10.464341  10.670949  11.404586   8.118337  10.373969
    41  H   11.006963  11.291457  11.910401   8.685827  10.762293
    42  H   11.053574  11.178340  12.017139   8.780165  10.832443
    43  H   10.534368  10.740877  11.477711   8.069245  10.796861
                   31         32         33         34         35
    31  S    0.000000
    32  C    1.827096   0.000000
    33  H    2.392952   1.093196   0.000000
    34  H    2.439267   1.094880   1.775592   0.000000
    35  H    2.441538   1.094728   1.789702   1.789419   0.000000
    36  C    3.643013   4.156022   4.278692   3.777024   5.204524
    37  H    3.525767   4.254930   4.198808   4.141952   5.320732
    38  H    3.361955   4.147423   4.524598   3.772786   5.097352
    39  H    3.436062   3.462679   3.527817   2.947141   4.515756
    40  C    1.827059   2.796069   3.761815   2.940066   3.023265
    41  H    2.393360   3.764218   4.637873   3.960104   4.025182
    42  H    2.447585   2.988079   4.017873   3.227237   2.803289
    43  H    2.447467   2.994068   3.981097   2.720713   3.350174
                   36         37         38         39         40
    36  C    0.000000
    37  H    1.090604   0.000000
    38  H    1.085826   1.786958   0.000000
    39  H    1.090500   1.767543   1.784881   0.000000
    40  C    4.228606   4.473833   3.524160   4.122062   0.000000
    41  H    4.475775   4.629203   3.631559   4.625771   1.093529
    42  H    5.243840   5.492744   4.580453   5.014985   1.094849
    43  H    3.815570   4.318208   3.057496   3.653425   1.095213
                   41         42         43
    41  H    0.000000
    42  H    1.778058   0.000000
    43  H    1.778514   1.787352   0.000000
 Symmetry turned off by external request.
 Stoichiometry    C12H22N4O4S
 Framework group  C1[X(C12H22N4O4S)]
 Deg. of freedom   123
 Full point group                 C1      NOp   1
 Rotational constants (GHZ):      0.2777918      0.1116255      0.0822769
 Standard basis: 6-31G(d) (6D, 7F)
   363 basis functions,   700 primitive gaussians,   363 cartesian basis functions
    85 alpha electrons       85 beta electrons
       nuclear repulsion energy      1761.1787848704 Hartrees.
 NAtoms=   43 NActive=   43 NUniq=   43 SFac= 1.00D+00 NAtFMM=   60 NAOKFM=F Big=F
 Integral buffers will be    131072 words long.
 Raffenetti 2 integral format.
 Two-electron integral symmetry is turned off.
 One-electron integrals computed using PRISM.
 NBasis=   363 RedAO= T EigKep=  1.10D-03  NBF=   363
 NBsUse=   363 1.00D-06 EigRej= -1.00D+00 NBFU=   363
 ExpMin= 1.17D-01 ExpMax= 2.19D+04 ExpMxC= 3.30D+03 IAcc=1 IRadAn=         1 AccDes= 0.00D+00
 Harris functional with IExCor=  402 and IRadAn=       1 diagonalized for initial guess.
 HarFok:  IExCor=  402 AccDes= 0.00D+00 IRadAn=         1 IDoV= 1 UseB2=F ITyADJ=14
 ICtDFT=  3500011 ScaDFX=  1.000000  1.000000  1.000000  1.000000
 FoFCou: FMM=F IPFlag=           0 FMFlag=      100000 FMFlg1=           0
         NFxFlg=           0 DoJE=T BraDBF=F KetDBF=T FulRan=T
         wScrn=  0.000000 ICntrl=     500 IOpCl=  0 I1Cent=   200000004 NGrid=           0
         NMat0=    1 NMatS0=      1 NMatT0=    0 NMatD0=    1 NMtDS0=    0 NMtDT0=    0
 Symmetry not used in FoFCou.
 Requested convergence on RMS density matrix=1.00D-08 within 128 cycles.
 Requested convergence on MAX density matrix=1.00D-06.
 Requested convergence on             energy=1.00D-06.
 No special actions if energy rises.
 Integral accuracy reduced to 1.0D-05 until final iterations.
 Initial convergence to 1.0D-05 achieved.  Increase integral accuracy.
 SCF Done:  E(RB3LYP) =  -1388.63369255     A.U. after   16 cycles
            NFock= 16  Conv=0.28D-08     -V/T= 2.0076

 **********************************************************************

            Population analysis using the SCF density.

 **********************************************************************

 Alpha  occ. eigenvalues --  -88.85049 -19.15689 -19.15419 -19.13693 -19.11197
 Alpha  occ. eigenvalues --  -14.41466 -14.40360 -14.33068 -14.32053 -10.34525
 Alpha  occ. eigenvalues --  -10.29838 -10.29730 -10.27951 -10.27514 -10.22726
 Alpha  occ. eigenvalues --  -10.22169 -10.20902 -10.19409 -10.19357 -10.19229
 Alpha  occ. eigenvalues --  -10.18012  -7.91116  -5.87650  -5.87274  -5.86558
 Alpha  occ. eigenvalues --   -1.08179  -1.06922  -1.04934  -0.99760  -0.98704
 Alpha  occ. eigenvalues --   -0.96974  -0.89675  -0.89431  -0.80425  -0.78551
 Alpha  occ. eigenvalues --   -0.77206  -0.73641  -0.71643  -0.68258  -0.67481
 Alpha  occ. eigenvalues --   -0.65982  -0.62967  -0.59425  -0.58546  -0.57732
 Alpha  occ. eigenvalues --   -0.56880  -0.56786  -0.51096  -0.50711  -0.50201
 Alpha  occ. eigenvalues --   -0.49406  -0.49164  -0.47345  -0.46777  -0.46202
 Alpha  occ. eigenvalues --   -0.45017  -0.44863  -0.43192  -0.42879  -0.42581
 Alpha  occ. eigenvalues --   -0.41916  -0.41809  -0.41173  -0.40534  -0.39971
 Alpha  occ. eigenvalues --   -0.39380  -0.38846  -0.38673  -0.38527  -0.37353
 Alpha  occ. eigenvalues --   -0.35990  -0.35100  -0.34613  -0.34079  -0.33754
 Alpha  occ. eigenvalues --   -0.30138  -0.29210  -0.29109  -0.28735  -0.27246
 Alpha  occ. eigenvalues --   -0.26998  -0.25107  -0.24733  -0.23897  -0.20055
 Alpha virt. eigenvalues --   -0.04855  -0.02445   0.00250   0.03276   0.04464
 Alpha virt. eigenvalues --    0.06154   0.07962   0.08548   0.09498   0.10095
 Alpha virt. eigenvalues --    0.10611   0.10805   0.10905   0.12754   0.13096
 Alpha virt. eigenvalues --    0.14294   0.14456   0.14933   0.15469   0.16172
 Alpha virt. eigenvalues --    0.16411   0.16818   0.17150   0.17803   0.18392
 Alpha virt. eigenvalues --    0.18581   0.19103   0.20455   0.20802   0.21376
 Alpha virt. eigenvalues --    0.21435   0.21707   0.22409   0.23806   0.25696
 Alpha virt. eigenvalues --    0.26457   0.27276   0.29591   0.30482   0.32186
 Alpha virt. eigenvalues --    0.33268   0.35104   0.36813   0.39387   0.39929
 Alpha virt. eigenvalues --    0.41288   0.41635   0.41910   0.44405   0.45332
 Alpha virt. eigenvalues --    0.46478   0.47140   0.49782   0.50527   0.52326
 Alpha virt. eigenvalues --    0.52514   0.53035   0.53404   0.54337   0.56164
 Alpha virt. eigenvalues --    0.56393   0.57055   0.57493   0.57668   0.57948
 Alpha virt. eigenvalues --    0.58929   0.60256   0.60459   0.61290   0.61648
 Alpha virt. eigenvalues --    0.62363   0.63558   0.64135   0.64933   0.65135
 Alpha virt. eigenvalues --    0.65830   0.67710   0.68618   0.70023   0.71574
 Alpha virt. eigenvalues --    0.71778   0.74538   0.75051   0.76081   0.76570
 Alpha virt. eigenvalues --    0.76923   0.77809   0.79147   0.79655   0.80589
 Alpha virt. eigenvalues --    0.81086   0.81802   0.82535   0.83232   0.84350
 Alpha virt. eigenvalues --    0.84446   0.84868   0.85271   0.85485   0.86329
 Alpha virt. eigenvalues --    0.86929   0.87410   0.87817   0.88647   0.89150
 Alpha virt. eigenvalues --    0.89503   0.90660   0.91161   0.91895   0.92594
 Alpha virt. eigenvalues --    0.92949   0.93773   0.94119   0.94311   0.94944
 Alpha virt. eigenvalues --    0.95077   0.96119   0.96952   0.97314   0.98037
 Alpha virt. eigenvalues --    0.98791   0.99156   0.99625   1.01220   1.02422
 Alpha virt. eigenvalues --    1.03609   1.04416   1.06232   1.06740   1.07715
 Alpha virt. eigenvalues --    1.07982   1.10573   1.11335   1.13155   1.16263
 Alpha virt. eigenvalues --    1.17665   1.19900   1.20957   1.22231   1.24731
 Alpha virt. eigenvalues --    1.27451   1.29432   1.30276   1.30842   1.32262
 Alpha virt. eigenvalues --    1.32614   1.35732   1.37823   1.38713   1.39439
 Alpha virt. eigenvalues --    1.40776   1.40883   1.42810   1.43613   1.44382
 Alpha virt. eigenvalues --    1.44421   1.46437   1.50521   1.51182   1.52170
 Alpha virt. eigenvalues --    1.58356   1.58982   1.61138   1.62915   1.64831
 Alpha virt. eigenvalues --    1.65891   1.69194   1.69569   1.70430   1.71198
 Alpha virt. eigenvalues --    1.72348   1.73092   1.73380   1.74841   1.75404
 Alpha virt. eigenvalues --    1.76036   1.77347   1.77606   1.78504   1.79944
 Alpha virt. eigenvalues --    1.81528   1.81804   1.82982   1.83536   1.84601
 Alpha virt. eigenvalues --    1.86863   1.87405   1.90081   1.90467   1.92514
 Alpha virt. eigenvalues --    1.93614   1.94074   1.95726   1.97680   1.98859
 Alpha virt. eigenvalues --    1.99544   2.00375   2.02490   2.03840   2.06035
 Alpha virt. eigenvalues --    2.06701   2.08605   2.09740   2.11061   2.11841
 Alpha virt. eigenvalues --    2.13650   2.15088   2.15956   2.18419   2.19997
 Alpha virt. eigenvalues --    2.21689   2.22192   2.22458   2.23418   2.24641
 Alpha virt. eigenvalues --    2.26016   2.27613   2.27648   2.27768   2.31612
 Alpha virt. eigenvalues --    2.31883   2.32788   2.34229   2.38455   2.40508
 Alpha virt. eigenvalues --    2.40674   2.44033   2.44815   2.45375   2.49570
 Alpha virt. eigenvalues --    2.50435   2.52498   2.55817   2.57585   2.58833
 Alpha virt. eigenvalues --    2.60597   2.63124   2.64766   2.65527   2.66097
 Alpha virt. eigenvalues --    2.66814   2.68922   2.70058   2.76451   2.76961
 Alpha virt. eigenvalues --    2.81374   2.82060   2.86983   2.90254   2.91411
 Alpha virt. eigenvalues --    2.93393   2.97604   2.97874   3.02942   3.15455
 Alpha virt. eigenvalues --    3.20874   3.39594   3.74875   3.90546   3.92500
 Alpha virt. eigenvalues --    3.93458   3.96394   4.00981   4.04637   4.08894
 Alpha virt. eigenvalues --    4.13362   4.18859   4.20275   4.21410   4.23305
 Alpha virt. eigenvalues --    4.23925   4.26390   4.32987   4.36519   4.48655
 Alpha virt. eigenvalues --    4.50889   4.60797   4.61571
          Condensed to atoms (all electrons):
               1          2          3          4          5          6
     1  C    4.175457  -0.015614  -0.025620   0.265120   0.000434   0.002364
     2  C   -0.015614   5.107116   0.555432  -0.028374   0.365513  -0.026784
     3  C   -0.025620   0.555432   4.776207   0.295914  -0.038839   0.363112
     4  N    0.265120  -0.028374   0.295914   7.060134   0.003702  -0.045449
     5  H    0.000434   0.365513  -0.038839   0.003702   0.546065  -0.004046
     6  H    0.002364  -0.026784   0.363112  -0.045449  -0.004046   0.532605
     7  O    0.618151   0.000597   0.002173  -0.090264   0.000003  -0.000101
     8  N    0.264464  -0.062771  -0.010956  -0.099951   0.003821  -0.000328
     9  C   -0.021216   0.428394  -0.014377  -0.017619  -0.028711   0.002741
    10  N    0.000867  -0.083262   0.007209   0.000163  -0.007052  -0.000131
    11  H   -0.000015   0.000607  -0.000020  -0.000000  -0.000006   0.000000
    12  H   -0.000020  -0.012768   0.001030   0.000013   0.004819  -0.000013
    13  H   -0.010935   0.003366  -0.023957   0.300761  -0.000135  -0.005176
    14  C   -0.000000  -0.000000  -0.000000   0.000000   0.000000  -0.000000
    15  H    0.000000   0.000000  -0.000000   0.000000  -0.000000   0.000000
    16  C    0.000000   0.000000  -0.000000  -0.000000   0.000000   0.000000
    17  C    0.000000  -0.000001   0.000000  -0.000000   0.000000  -0.000000
    18  H    0.000000  -0.000000  -0.000000  -0.000000  -0.000000  -0.000000
    19  H    0.000000  -0.000000  -0.000000   0.000000  -0.000000  -0.000000
    20  C   -0.000000   0.000000  -0.000000   0.000000  -0.000000   0.000000
    21  O   -0.000000  -0.000023   0.000000   0.000000   0.000000  -0.000000
    22  O   -0.000000  -0.000000   0.000000  -0.000000   0.000000  -0.000000
    23  H    0.000000  -0.000000   0.000000  -0.000000  -0.000000  -0.000000
    24  C   -0.000000  -0.000000  -0.000000  -0.000000   0.000000   0.000000
    25  O    0.000000   0.000000   0.000000   0.000000  -0.000000   0.000000
    26  N    0.000000  -0.000000   0.000000  -0.000000   0.000000  -0.000000
    27  H    0.000000  -0.000000   0.000000  -0.000000   0.000000  -0.000000
    28  H   -0.000000   0.000000  -0.000000   0.000000  -0.000000   0.000000
    29  H    0.000000  -0.000000  -0.000000   0.000000  -0.000000   0.000000
    30  H   -0.000000  -0.000000   0.000000   0.000000  -0.000000  -0.000000
    31  S   -0.000013   0.000000   0.000000  -0.000000  -0.000000  -0.000000
    32  C    0.000000  -0.000000  -0.000000   0.000000  -0.000000   0.000000
    33  H   -0.000000   0.000000   0.000000   0.000000   0.000000  -0.000000
    34  H    0.000000  -0.000000  -0.000000  -0.000000   0.000000  -0.000000
    35  H   -0.000000   0.000000   0.000000   0.000000  -0.000000   0.000000
    36  C   -0.033578   0.005255  -0.000085   0.003031  -0.000104   0.000012
    37  H    0.002692  -0.000048  -0.000006  -0.000068  -0.000002   0.000000
    38  H   -0.001574  -0.000180  -0.000047   0.000890   0.000002   0.000001
    39  H    0.000363  -0.000118   0.000003  -0.000083   0.000001  -0.000000
    40  C   -0.000002   0.000000  -0.000000  -0.000000  -0.000000   0.000000
    41  H   -0.000000  -0.000000   0.000000   0.000000  -0.000000   0.000000
    42  H    0.000000  -0.000000   0.000000   0.000000  -0.000000  -0.000000
    43  H    0.000001  -0.000000  -0.000000  -0.000000   0.000000   0.000000
               7          8          9         10         11         12
     1  C    0.618151   0.264464  -0.021216   0.000867  -0.000015  -0.000020
     2  C    0.000597  -0.062771   0.428394  -0.083262   0.000607  -0.012768
     3  C    0.002173  -0.010956  -0.014377   0.007209  -0.000020   0.001030
     4  N   -0.090264  -0.099951  -0.017619   0.000163  -0.000000   0.000013
     5  H    0.000003   0.003821  -0.028711  -0.007052  -0.000006   0.004819
     6  H   -0.000101  -0.000328   0.002741  -0.000131   0.000000  -0.000013
     7  O    8.046615  -0.087722   0.000285  -0.000053  -0.000000   0.000001
     8  N   -0.087722   7.193785   0.277892  -0.083202  -0.002432   0.007849
     9  C    0.000285   0.277892   4.350122   0.527615   0.003322  -0.048456
    10  N   -0.000053  -0.083202   0.527615   7.029321   0.077896   0.289955
    11  H   -0.000000  -0.002432   0.003322   0.077896   0.292946  -0.005498
    12  H    0.000001   0.007849  -0.048456   0.289955  -0.005498   0.459879
    13  H    0.007557   0.005629   0.000307   0.000011  -0.000000  -0.000001
    14  C   -0.000000   0.000000   0.000023  -0.000466   0.003077   0.000236
    15  H    0.000000  -0.000003   0.000038   0.001573   0.001247  -0.000083
    16  C    0.000000  -0.000000   0.000000   0.000021   0.000165  -0.000004
    17  C    0.000000   0.000005  -0.000014  -0.000664  -0.011728  -0.000015
    18  H   -0.000000   0.000000   0.000000  -0.000000  -0.000001   0.000000
    19  H   -0.000000  -0.000000   0.000000  -0.000000  -0.000002   0.000000
    20  C   -0.000000  -0.000000  -0.000000   0.000000  -0.000018  -0.000000
    21  O   -0.000000   0.000384  -0.000722  -0.031411   0.168134   0.001183
    22  O    0.000000   0.000000   0.000000  -0.000016   0.002507   0.000001
    23  H    0.000000   0.000000   0.000000  -0.000000   0.000000   0.000000
    24  C   -0.000000  -0.000000   0.000000   0.000000   0.000000  -0.000000
    25  O    0.000000  -0.000000  -0.000000   0.000000  -0.000000   0.000000
    26  N   -0.000000   0.000000  -0.000000  -0.000000  -0.000000  -0.000000
    27  H    0.000000   0.000000   0.000000  -0.000000   0.000000   0.000000
    28  H   -0.000000  -0.000000  -0.000000  -0.000000  -0.000000  -0.000000
    29  H    0.000000  -0.000000   0.000013   0.000165   0.000207   0.000150
    30  H   -0.000000   0.000000  -0.000000  -0.000000  -0.000000   0.000000
    31  S   -0.000007   0.000504  -0.000009   0.000004   0.000009  -0.000000
    32  C    0.000000   0.000002  -0.000000   0.000000  -0.000016   0.000000
    33  H   -0.000000   0.000000  -0.000000  -0.000000   0.000044  -0.000000
    34  H   -0.000000  -0.000011  -0.000000   0.000000  -0.000004   0.000000
    35  H    0.000000   0.000000  -0.000000   0.000000  -0.000000  -0.000000
    36  C   -0.011272   0.240039  -0.028864  -0.006908   0.001680  -0.000044
    37  H    0.000556  -0.037874  -0.004323   0.005944   0.000104   0.000050
    38  H    0.017422  -0.032930   0.003807   0.000535   0.000022  -0.000005
    39  H    0.000418  -0.035636  -0.002919   0.002188  -0.002137   0.000040
    40  C   -0.000002   0.000002  -0.000000  -0.000000  -0.000000   0.000000
    41  H    0.000000   0.000000   0.000000   0.000000  -0.000000   0.000000
    42  H    0.000000   0.000000   0.000000   0.000000   0.000000  -0.000000
    43  H    0.000011  -0.000013  -0.000000  -0.000000  -0.000000   0.000000
              13         14         15         16         17         18
     1  C   -0.010935  -0.000000   0.000000   0.000000   0.000000   0.000000
     2  C    0.003366  -0.000000   0.000000   0.000000  -0.000001  -0.000000
     3  C   -0.023957  -0.000000  -0.000000  -0.000000   0.000000  -0.000000
     4  N    0.300761   0.000000   0.000000  -0.000000  -0.000000  -0.000000
     5  H   -0.000135   0.000000  -0.000000   0.000000   0.000000  -0.000000
     6  H   -0.005176  -0.000000   0.000000   0.000000  -0.000000  -0.000000
     7  O    0.007557  -0.000000   0.000000   0.000000   0.000000  -0.000000
     8  N    0.005629   0.000000  -0.000003  -0.000000   0.000005   0.000000
     9  C    0.000307   0.000023   0.000038   0.000000  -0.000014   0.000000
    10  N    0.000011  -0.000466   0.001573   0.000021  -0.000664  -0.000000
    11  H   -0.000000   0.003077   0.001247   0.000165  -0.011728  -0.000001
    12  H   -0.000001   0.000236  -0.000083  -0.000004  -0.000015   0.000000
    13  H    0.364454  -0.000000   0.000000  -0.000000   0.000000   0.000000
    14  C   -0.000000   5.345302   0.349176   0.328980   0.316406  -0.043283
    15  H    0.000000   0.349176   0.570449  -0.033678  -0.023023   0.004992
    16  C   -0.000000   0.328980  -0.033678   5.077621  -0.027041   0.377253
    17  C    0.000000   0.316406  -0.023023  -0.027041   4.285213  -0.001907
    18  H    0.000000  -0.043283   0.004992   0.377253  -0.001907   0.556021
    19  H    0.000000  -0.036332  -0.004828   0.375944  -0.001885  -0.030356
    20  C    0.000000  -0.028570  -0.001652   0.314868   0.003538  -0.040434
    21  O   -0.000000  -0.092359   0.001249   0.003603   0.307785   0.000168
    22  O   -0.000000  -0.096155   0.001103   0.007804   0.560785   0.007592
    23  H   -0.000000  -0.007120   0.003795  -0.034242  -0.000009   0.005725
    24  C    0.000000   0.002751   0.000006  -0.045048  -0.000018  -0.002867
    25  O    0.000000  -0.000028   0.000000  -0.000714   0.000000   0.000687
    26  N    0.000000  -0.007928   0.000267  -0.054016   0.000007  -0.004317
    27  H   -0.000000  -0.000205   0.000039  -0.003911  -0.000035   0.005415
    28  H    0.000000   0.000149  -0.000019   0.006543   0.000006  -0.000067
    29  H   -0.000000   0.356570  -0.030194  -0.032800  -0.024031  -0.002915
    30  H   -0.000000  -0.000403   0.000003   0.004121   0.000003   0.000591
    31  S   -0.000000   0.000009  -0.000002  -0.000001   0.000513  -0.000000
    32  C   -0.000000  -0.000069   0.000003   0.000002  -0.000740   0.000001
    33  H    0.000000   0.000460  -0.000015  -0.000015   0.002143  -0.000005
    34  H    0.000000   0.000001  -0.000000  -0.000000   0.000036  -0.000000
    35  H   -0.000000   0.000000  -0.000000  -0.000000   0.000017  -0.000000
    36  C   -0.000094  -0.000046  -0.000007   0.000000   0.000196  -0.000000
    37  H    0.000002  -0.000043   0.000096  -0.000000   0.000161   0.000000
    38  H   -0.000025   0.000001   0.000000  -0.000000  -0.000003  -0.000000
    39  H    0.000003   0.000068  -0.000016  -0.000001   0.000320  -0.000000
    40  C   -0.000000  -0.000000  -0.000000   0.000000  -0.000001  -0.000000
    41  H   -0.000000   0.000000  -0.000000  -0.000000   0.000000  -0.000000
    42  H   -0.000000  -0.000000   0.000000   0.000000   0.000000   0.000000
    43  H    0.000000   0.000000  -0.000000  -0.000000   0.000000  -0.000000
              19         20         21         22         23         24
     1  C    0.000000  -0.000000  -0.000000  -0.000000   0.000000  -0.000000
     2  C   -0.000000   0.000000  -0.000023  -0.000000  -0.000000  -0.000000
     3  C   -0.000000  -0.000000   0.000000   0.000000   0.000000  -0.000000
     4  N    0.000000   0.000000   0.000000  -0.000000  -0.000000  -0.000000
     5  H   -0.000000  -0.000000   0.000000   0.000000  -0.000000   0.000000
     6  H   -0.000000   0.000000  -0.000000  -0.000000  -0.000000   0.000000
     7  O   -0.000000  -0.000000  -0.000000   0.000000   0.000000  -0.000000
     8  N   -0.000000  -0.000000   0.000384   0.000000   0.000000  -0.000000
     9  C    0.000000  -0.000000  -0.000722   0.000000   0.000000   0.000000
    10  N   -0.000000   0.000000  -0.031411  -0.000016  -0.000000   0.000000
    11  H   -0.000002  -0.000018   0.168134   0.002507   0.000000   0.000000
    12  H    0.000000  -0.000000   0.001183   0.000001   0.000000  -0.000000
    13  H    0.000000   0.000000  -0.000000  -0.000000  -0.000000   0.000000
    14  C   -0.036332  -0.028570  -0.092359  -0.096155  -0.007120   0.002751
    15  H   -0.004828  -0.001652   0.001249   0.001103   0.003795   0.000006
    16  C    0.375944   0.314868   0.003603   0.007804  -0.034242  -0.045048
    17  C   -0.001885   0.003538   0.307785   0.560785  -0.000009  -0.000018
    18  H   -0.030356  -0.040434   0.000168   0.007592   0.005725  -0.002867
    19  H    0.569047  -0.041123   0.000038   0.002356  -0.001893   0.000365
    20  C   -0.041123   5.200602  -0.000020   0.000687   0.349327   0.274168
    21  O    0.000038  -0.000020   8.333999  -0.076585  -0.000001   0.000000
    22  O    0.002356   0.000687  -0.076585   8.046415  -0.000004  -0.000001
    23  H   -0.001893   0.349327  -0.000001  -0.000004   0.613552  -0.042097
    24  C    0.000365   0.274168   0.000000  -0.000001  -0.042097   4.720218
    25  O    0.000110  -0.080569  -0.000000  -0.000000   0.001470   0.577567
    26  N    0.003879   0.323800  -0.000000  -0.000003  -0.042116  -0.043437
    27  H   -0.000075  -0.050421  -0.000000  -0.000003   0.007472  -0.002753
    28  H   -0.000198  -0.045287  -0.000000   0.000000  -0.004360   0.000923
    29  H    0.004687  -0.006092   0.001536   0.000429  -0.000520   0.000395
    30  H    0.004307  -0.110066  -0.000000  -0.000000   0.005643   0.318955
    31  S    0.000000  -0.000000   0.000297   0.000403   0.000000  -0.000000
    32  C    0.000000   0.000000   0.000654  -0.007886  -0.000000   0.000000
    33  H   -0.000002  -0.000000  -0.000260   0.025247   0.000000   0.000000
    34  H    0.000000   0.000000   0.000043   0.000052   0.000000  -0.000000
    35  H    0.000000  -0.000000   0.000028   0.000066   0.000000  -0.000000
    36  C    0.000000   0.000000  -0.003358  -0.000004  -0.000000  -0.000000
    37  H   -0.000000   0.000000   0.001739  -0.000009  -0.000000   0.000000
    38  H   -0.000000   0.000000   0.000234  -0.000000  -0.000000  -0.000000
    39  H    0.000000   0.000000   0.008414  -0.000016   0.000000  -0.000000
    40  C    0.000000   0.000000   0.000001  -0.000000   0.000000  -0.000000
    41  H   -0.000000  -0.000000   0.000000   0.000000   0.000000  -0.000000
    42  H   -0.000000  -0.000000  -0.000000   0.000000   0.000000   0.000000
    43  H    0.000000  -0.000000   0.000000   0.000000  -0.000000   0.000000
              25         26         27         28         29         30
     1  C    0.000000   0.000000   0.000000  -0.000000   0.000000  -0.000000
     2  C    0.000000  -0.000000  -0.000000   0.000000  -0.000000  -0.000000
     3  C    0.000000   0.000000   0.000000  -0.000000  -0.000000   0.000000
     4  N    0.000000  -0.000000  -0.000000   0.000000   0.000000   0.000000
     5  H   -0.000000   0.000000   0.000000  -0.000000  -0.000000  -0.000000
     6  H    0.000000  -0.000000  -0.000000   0.000000   0.000000  -0.000000
     7  O    0.000000  -0.000000   0.000000  -0.000000   0.000000  -0.000000
     8  N   -0.000000   0.000000   0.000000  -0.000000  -0.000000   0.000000
     9  C   -0.000000  -0.000000   0.000000  -0.000000   0.000013  -0.000000
    10  N    0.000000  -0.000000  -0.000000  -0.000000   0.000165  -0.000000
    11  H   -0.000000  -0.000000   0.000000  -0.000000   0.000207  -0.000000
    12  H    0.000000  -0.000000   0.000000  -0.000000   0.000150   0.000000
    13  H    0.000000   0.000000  -0.000000   0.000000  -0.000000  -0.000000
    14  C   -0.000028  -0.007928  -0.000205   0.000149   0.356570  -0.000403
    15  H    0.000000   0.000267   0.000039  -0.000019  -0.030194   0.000003
    16  C   -0.000714  -0.054016  -0.003911   0.006543  -0.032800   0.004121
    17  C    0.000000   0.000007  -0.000035   0.000006  -0.024031   0.000003
    18  H    0.000687  -0.004317   0.005415  -0.000067  -0.002915   0.000591
    19  H    0.000110   0.003879  -0.000075  -0.000198   0.004687   0.004307
    20  C   -0.080569   0.323800  -0.050421  -0.045287  -0.006092  -0.110066
    21  O   -0.000000  -0.000000  -0.000000  -0.000000   0.001536  -0.000000
    22  O   -0.000000  -0.000003  -0.000003   0.000000   0.000429  -0.000000
    23  H    0.001470  -0.042116   0.007472  -0.004360  -0.000520   0.005643
    24  C    0.577567  -0.043437  -0.002753   0.000923   0.000395   0.318955
    25  O    7.944803  -0.006680   0.008554   0.004783   0.000001  -0.061640
    26  N   -0.006680   6.886102   0.311495   0.313176   0.015241   0.005758
    27  H    0.008554   0.311495   0.449053  -0.031322  -0.000467   0.000635
    28  H    0.004783   0.313176  -0.031322   0.449455  -0.000360   0.000482
    29  H    0.000001   0.015241  -0.000467  -0.000360   0.525817  -0.000025
    30  H   -0.061640   0.005758   0.000635   0.000482  -0.000025   0.727629
    31  S    0.000000  -0.000000   0.000000   0.000000   0.000000   0.000000
    32  C   -0.000000  -0.000000  -0.000000   0.000000   0.000000  -0.000000
    33  H    0.000000   0.000000   0.000000  -0.000000  -0.000004   0.000000
    34  H    0.000000  -0.000000   0.000000   0.000000   0.000000   0.000000
    35  H    0.000000   0.000000   0.000000   0.000000  -0.000000   0.000000
    36  C    0.000000   0.000000  -0.000000  -0.000000   0.000000  -0.000000
    37  H    0.000000   0.000000   0.000000   0.000000  -0.000002   0.000000
    38  H    0.000000   0.000000  -0.000000   0.000000  -0.000000   0.000000
    39  H    0.000000  -0.000000   0.000000   0.000000  -0.000001   0.000000
    40  C   -0.000000  -0.000000   0.000000   0.000000   0.000000   0.000000
    41  H    0.000000   0.000000   0.000000  -0.000000  -0.000000   0.000000
    42  H    0.000000  -0.000000   0.000000  -0.000000   0.000000  -0.000000
    43  H    0.000000   0.000000   0.000000   0.000000   0.000000   0.000000
              31         32         33         34         35         36
     1  C   -0.000013   0.000000  -0.000000   0.000000  -0.000000  -0.033578
     2  C    0.000000  -0.000000   0.000000  -0.000000   0.000000   0.005255
     3  C    0.000000  -0.000000   0.000000  -0.000000   0.000000  -0.000085
     4  N   -0.000000   0.000000   0.000000  -0.000000   0.000000   0.003031
     5  H   -0.000000  -0.000000   0.000000   0.000000  -0.000000  -0.000104
     6  H   -0.000000   0.000000  -0.000000  -0.000000   0.000000   0.000012
     7  O   -0.000007   0.000000  -0.000000  -0.000000   0.000000  -0.011272
     8  N    0.000504   0.000002   0.000000  -0.000011   0.000000   0.240039
     9  C   -0.000009  -0.000000  -0.000000  -0.000000  -0.000000  -0.028864
    10  N    0.000004   0.000000  -0.000000   0.000000   0.000000  -0.006908
    11  H    0.000009  -0.000016   0.000044  -0.000004  -0.000000   0.001680
    12  H   -0.000000   0.000000  -0.000000   0.000000  -0.000000  -0.000044
    13  H   -0.000000  -0.000000   0.000000   0.000000  -0.000000  -0.000094
    14  C    0.000009  -0.000069   0.000460   0.000001   0.000000  -0.000046
    15  H   -0.000002   0.000003  -0.000015  -0.000000  -0.000000  -0.000007
    16  C   -0.000001   0.000002  -0.000015  -0.000000  -0.000000   0.000000
    17  C    0.000513  -0.000740   0.002143   0.000036   0.000017   0.000196
    18  H   -0.000000   0.000001  -0.000005  -0.000000  -0.000000  -0.000000
    19  H    0.000000   0.000000  -0.000002   0.000000   0.000000   0.000000
    20  C   -0.000000   0.000000  -0.000000   0.000000  -0.000000   0.000000
    21  O    0.000297   0.000654  -0.000260   0.000043   0.000028  -0.003358
    22  O    0.000403  -0.007886   0.025247   0.000052   0.000066  -0.000004
    23  H    0.000000  -0.000000   0.000000   0.000000   0.000000  -0.000000
    24  C   -0.000000   0.000000   0.000000  -0.000000  -0.000000  -0.000000
    25  O    0.000000  -0.000000   0.000000   0.000000   0.000000   0.000000
    26  N   -0.000000  -0.000000   0.000000  -0.000000   0.000000   0.000000
    27  H    0.000000  -0.000000   0.000000   0.000000   0.000000  -0.000000
    28  H    0.000000   0.000000  -0.000000   0.000000   0.000000  -0.000000
    29  H    0.000000   0.000000  -0.000004   0.000000  -0.000000   0.000000
    30  H    0.000000  -0.000000   0.000000   0.000000   0.000000  -0.000000
    31  S   15.651574   0.258344  -0.027374  -0.046281  -0.046522   0.000375
    32  C    0.258344   5.303263   0.349251   0.364402   0.360146  -0.000270
    33  H   -0.027374   0.349251   0.457766  -0.020890  -0.020751  -0.000050
    34  H   -0.046281   0.364402  -0.020890   0.576288  -0.039049   0.000024
    35  H   -0.046522   0.360146  -0.020751  -0.039049   0.582282   0.000008
    36  C    0.000375  -0.000270  -0.000050   0.000024   0.000008   5.041944
    37  H    0.001718  -0.000017  -0.000006  -0.000024   0.000001   0.377844
    38  H    0.000996  -0.000059   0.000006  -0.000037   0.000002   0.364526
    39  H   -0.000626   0.000250   0.000064   0.001085   0.000002   0.380750
    40  C    0.256528  -0.026287   0.002313  -0.004402  -0.003450  -0.000300
    41  H   -0.032341   0.002714  -0.000057   0.000001  -0.000028  -0.000010
    42  H   -0.043853  -0.003313  -0.000029  -0.001266   0.005660   0.000010
    43  H   -0.046520  -0.003624   0.000006   0.006650  -0.001103   0.000097
              37         38         39         40         41         42
     1  C    0.002692  -0.001574   0.000363  -0.000002  -0.000000   0.000000
     2  C   -0.000048  -0.000180  -0.000118   0.000000  -0.000000  -0.000000
     3  C   -0.000006  -0.000047   0.000003  -0.000000   0.000000   0.000000
     4  N   -0.000068   0.000890  -0.000083  -0.000000   0.000000   0.000000
     5  H   -0.000002   0.000002   0.000001  -0.000000  -0.000000  -0.000000
     6  H    0.000000   0.000001  -0.000000   0.000000   0.000000  -0.000000
     7  O    0.000556   0.017422   0.000418  -0.000002   0.000000   0.000000
     8  N   -0.037874  -0.032930  -0.035636   0.000002   0.000000   0.000000
     9  C   -0.004323   0.003807  -0.002919  -0.000000   0.000000   0.000000
    10  N    0.005944   0.000535   0.002188  -0.000000   0.000000   0.000000
    11  H    0.000104   0.000022  -0.002137  -0.000000  -0.000000   0.000000
    12  H    0.000050  -0.000005   0.000040   0.000000   0.000000  -0.000000
    13  H    0.000002  -0.000025   0.000003  -0.000000  -0.000000  -0.000000
    14  C   -0.000043   0.000001   0.000068  -0.000000   0.000000  -0.000000
    15  H    0.000096   0.000000  -0.000016  -0.000000  -0.000000   0.000000
    16  C   -0.000000  -0.000000  -0.000001   0.000000  -0.000000   0.000000
    17  C    0.000161  -0.000003   0.000320  -0.000001   0.000000   0.000000
    18  H    0.000000  -0.000000  -0.000000  -0.000000  -0.000000   0.000000
    19  H   -0.000000  -0.000000   0.000000   0.000000  -0.000000  -0.000000
    20  C    0.000000   0.000000   0.000000   0.000000  -0.000000  -0.000000
    21  O    0.001739   0.000234   0.008414   0.000001   0.000000  -0.000000
    22  O   -0.000009  -0.000000  -0.000016  -0.000000   0.000000   0.000000
    23  H   -0.000000  -0.000000   0.000000   0.000000   0.000000   0.000000
    24  C    0.000000  -0.000000  -0.000000  -0.000000  -0.000000   0.000000
    25  O    0.000000   0.000000   0.000000  -0.000000   0.000000   0.000000
    26  N    0.000000   0.000000  -0.000000  -0.000000   0.000000  -0.000000
    27  H    0.000000  -0.000000   0.000000   0.000000   0.000000   0.000000
    28  H    0.000000   0.000000   0.000000   0.000000  -0.000000  -0.000000
    29  H   -0.000002  -0.000000  -0.000001   0.000000  -0.000000   0.000000
    30  H    0.000000   0.000000   0.000000   0.000000   0.000000  -0.000000
    31  S    0.001718   0.000996  -0.000626   0.256528  -0.032341  -0.043853
    32  C   -0.000017  -0.000059   0.000250  -0.026287   0.002714  -0.003313
    33  H   -0.000006   0.000006   0.000064   0.002313  -0.000057  -0.000029
    34  H   -0.000024  -0.000037   0.001085  -0.004402   0.000001  -0.001266
    35  H    0.000001   0.000002   0.000002  -0.003450  -0.000028   0.005660
    36  C    0.377844   0.364526   0.380750  -0.000300  -0.000010   0.000010
    37  H    0.520966  -0.020824  -0.033057  -0.000016  -0.000001   0.000000
    38  H   -0.020824   0.481406  -0.022923   0.000447   0.000058  -0.000002
    39  H   -0.033057  -0.022923   0.496770  -0.000063   0.000001  -0.000001
    40  C   -0.000016   0.000447  -0.000063   5.251323   0.371104   0.365157
    41  H   -0.000001   0.000058   0.000001   0.371104   0.534951  -0.026334
    42  H    0.000000  -0.000002  -0.000001   0.365157  -0.026334   0.571565
    43  H   -0.000014   0.000504   0.000078   0.366165  -0.026441  -0.039310
              43
     1  C    0.000001
     2  C   -0.000000
     3  C   -0.000000
     4  N   -0.000000
     5  H    0.000000
     6  H    0.000000
     7  O    0.000011
     8  N   -0.000013
     9  C   -0.000000
    10  N   -0.000000
    11  H   -0.000000
    12  H    0.000000
    13  H    0.000000
    14  C    0.000000
    15  H   -0.000000
    16  C   -0.000000
    17  C    0.000000
    18  H   -0.000000
    19  H    0.000000
    20  C   -0.000000
    21  O    0.000000
    22  O    0.000000
    23  H   -0.000000
    24  C    0.000000
    25  O    0.000000
    26  N    0.000000
    27  H    0.000000
    28  H    0.000000
    29  H    0.000000
    30  H    0.000000
    31  S   -0.046520
    32  C   -0.003624
    33  H    0.000006
    34  H    0.006650
    35  H   -0.001103
    36  C    0.000097
    37  H   -0.000014
    38  H    0.000504
    39  H    0.000078
    40  C    0.366165
    41  H   -0.026441
    42  H   -0.039310
    43  H    0.570036
 Mulliken charges:
               1
     1  C    0.778674
     2  C   -0.236336
     3  C    0.112826
     4  N   -0.647919
     5  H    0.154535
     6  H    0.181193
     7  O   -0.504368
     8  N   -0.540548
     9  C    0.572669
    10  N   -0.730302
    11  H    0.469911
    12  H    0.301702
    13  H    0.358233
    14  C   -0.390204
    15  H    0.159481
    16  C   -0.265454
    17  C    0.613981
    18  H    0.167706
    19  H    0.155960
    20  C   -0.062738
    21  O   -0.624750
    22  O   -0.474765
    23  H    0.145377
    24  C    0.240875
    25  O   -0.388345
    26  N   -0.701229
    27  H    0.306530
    28  H    0.306095
    29  H    0.192198
    30  H    0.104009
    31  S    0.072274
    32  C   -0.596753
    33  H    0.232159
    34  H    0.163382
    35  H    0.162691
    36  C   -0.330797
    37  H    0.184463
    38  H    0.207750
    39  H    0.206780
    40  C   -0.578516
    41  H    0.176382
    42  H    0.171715
    43  H    0.173475
 Sum of Mulliken charges =  -0.00000
 Mulliken charges with hydrogens summed into heavy atoms:
               1
     1  C    0.778674
     2  C   -0.081801
     3  C    0.294019
     4  N   -0.289686
     7  O   -0.504368
     8  N   -0.540548
     9  C    0.572669
    10  N   -0.428599
    14  C   -0.038525
    16  C    0.058212
    17  C    0.613981
    20  C    0.082638
    21  O   -0.154839
    22  O   -0.474765
    24  C    0.344883
    25  O   -0.388345
    26  N   -0.088604
    31  S    0.072274
    32  C   -0.038521
    36  C    0.268195
    40  C   -0.056943
 Electronic spatial extent (au):  <R**2>=          12302.4670
 Charge=             -0.0000 electrons
 Dipole moment (field-independent basis, Debye):
    X=             -7.5356    Y=              5.5077    Z=              1.4953  Tot=              9.4528
 Quadrupole moment (field-independent basis, Debye-Ang):
   XX=           -115.6846   YY=           -120.6587   ZZ=           -146.8185
   XY=            -10.5482   XZ=             -1.9722   YZ=             -3.8327
 Traceless Quadrupole moment (field-independent basis, Debye-Ang):
   XX=             12.0360   YY=              7.0619   ZZ=            -19.0979
   XY=            -10.5482   XZ=             -1.9722   YZ=             -3.8327
 Octapole moment (field-independent basis, Debye-Ang**2):
  XXX=            -63.0045  YYY=            156.7107  ZZZ=             44.6959  XYY=           -122.7483
  XXY=             90.6074  XXZ=             27.8461  XZZ=            -22.2421  YZZ=             88.8754
  YYZ=            105.8129  XYZ=            -41.5576
 Hexadecapole moment (field-independent basis, Debye-Ang**3):
 XXXX=          -3466.4684 YYYY=          -5925.7909 ZZZZ=          -6429.8134 XXXY=            448.9932
 XXXZ=           -534.7388 YYYX=            172.4619 YYYZ=          -2677.0487 ZZZX=           -595.2917
 ZZZY=          -2997.2694 XXYY=          -1291.9333 XXZZ=          -1478.0258 YYZZ=          -2573.6052
 XXYZ=           -577.6925 YYXZ=           -440.1296 ZZXY=            118.6644
 N-N= 1.761178784870D+03 E-N=-6.778206886068D+03  KE= 1.378138331306D+03
 Calling FoFJK, ICntrl=      2127 FMM=F ISym2X=0 I1Cent= 0 IOpClX= 0 NMat=1 NMatS=1 NMatT=0.
 -------------------------------------------------------------------
 Center     Atomic                   Forces (Hartrees/Bohr)
 Number     Number              X              Y              Z
 -------------------------------------------------------------------
      1        6          -0.000162634   -0.000018522   -0.000026424
      2        6           0.000015166   -0.000086640   -0.000189624
      3        6          -0.000065580   -0.000063559   -0.000233225
      4        7          -0.000182655   -0.000038544   -0.000187702
      5        1           0.000012656   -0.000009037   -0.000015337
      6        1          -0.000000203   -0.000009622   -0.000026925
      7        8          -0.000355195    0.000002178    0.000029155
      8        7          -0.000088147   -0.000046364   -0.000001010
      9        6           0.000014670   -0.000081892   -0.000067743
     10        7           0.000101070   -0.000114237   -0.000012375
     11        1           0.000012711   -0.000001679    0.000006671
     12        1           0.000018162   -0.000010755   -0.000000673
     13        1          -0.000018540   -0.000005021   -0.000019242
     14        6           0.000075616    0.000081624    0.000050010
     15        1           0.000012156    0.000010181    0.000005038
     16        6          -0.000010564    0.000060486    0.000051621
     17        6           0.000143651    0.000062787   -0.000032915
     18        1          -0.000004554    0.000001105    0.000002858
     19        1          -0.000002114    0.000004851    0.000004099
     20        6          -0.000071211    0.000111140    0.000102007
     21        8           0.000200996    0.000020557    0.000074925
     22        8           0.000135732    0.000152146   -0.000218308
     23        1          -0.000001808    0.000014250    0.000009794
     24        6          -0.000168908    0.000086701    0.000097767
     25        8          -0.000301188    0.000096275    0.000141223
     26        7          -0.000071453    0.000141650    0.000117872
     27        1          -0.000011421    0.000005607    0.000009012
     28        1          -0.000004278    0.000016193    0.000014360
     29        1           0.000005150    0.000006857    0.000004870
     30        1          -0.000015796    0.000007291    0.000008260
     31       16           0.000362830   -0.000105964    0.000069519
     32        6           0.000119752   -0.000025607    0.000017843
     33        1           0.000007284    0.000004540    0.000004146
     34        1           0.000015256   -0.000003924    0.000005681
     35        1           0.000005753   -0.000006163   -0.000001993
     36        6          -0.000070698   -0.000019272    0.000110505
     37        1          -0.000005488   -0.000002147    0.000010431
     38        1          -0.000015210    0.000001384    0.000006674
     39        1          -0.000004069   -0.000002779    0.000015416
     40        6           0.000295233   -0.000174625    0.000050594
     41        1           0.000026562   -0.000017505    0.000003522
     42        1           0.000015291   -0.000021725   -0.000002198
[...]
 0.00000798,-0.00000227,-0.00000327,-0.00000352,0.00000061,0.00000122,-
 0.00000025,-0.00000392,0.00000302,-0.00000838,-0.00000267,0.00000339,-
 0.00000180,0.00004713,-0.00014899,0.00013916,-0.00004936,0.00000794,0.
 00007239,0.00003152,0.00001237,0.00002616,-0.00002732,0.00002415,-0.00
 000518,0.00003212,-0.00001692,-0.00002344,0.12184922,0.06595379,-0.212
 42762,-0.00007438,-0.00059432,-0.00093450,0.01554283,0.01072522,-0.017
 18453,-0.13046629,-0.06892657,0.22236729,-0.00000421,-0.00002407,-0.00
 007729,0.00001838,-0.00002545,-0.00002013,0.00001069,0.00001662,0.0000
 3155,-0.00002735,-0.00000122,-0.00000736,-0.00000434,0.00000128,-0.000
 00076,0.00000041,0.00000017,-0.00000151,0.00000176,-0.00000095,0.00003
 473,-0.00007047,0.00011456,-0.00002190,0.00000878,0.00007128,0.0001400
 3,0.00010520,-0.00008850,-0.00011935,-0.00017100,0.00010184,0.00015255
 ,-0.00001885,0.00001223,0.00000779,-0.00000538,0.00000416,-0.00000170,
 0.00007776,-0.00003741,-0.00001404,0.00004354,0.00002188,0.00000539,0.
 00000544,-0.00001309,-0.00000781,-0.00079078,0.00055423,0.00025585,-0.
 00000594,-0.00000479,-0.00001637,-0.00001141,-0.00000963,0.00000203,-0
 .00001920,0.00001054,-0.00000472,0.00030172,-0.00038763,-0.00047686,0.
 00082541,-0.00003851,0.00024589,0.00000432,0.00000029,-0.00000257,0.00
 001247,-0.00004118,-0.00002296,0.00000409,0.00002252,0.00003023,0.0000
 2555,0.00000626,0.00001195,-0.00000611,-0.00000361,-0.00000710,-0.0000
 0159,0.00000766,0.00000669,0.00001425,0.00000372,0.00000826,-0.0000036
 9,0.00000147,-0.00000137,-0.10715436,-0.01104860,-0.06406233,0.0116679
 2,0.00300266,0.01571625,-0.00443704,0.00065713,0.00401107,0.00119306,0
 .00055144,0.00053072,0.00129922,-0.00040236,0.00067421,-0.00005168,-0.
 00025230,-0.00002249,0.00015347,0.00007738,0.00001880,-0.00001654,0.00
 002069,-0.00001552,0.00000378,-0.00000064,0.00001617,0.48812495,-0.000
 07620,0.00021513,0.00028831,0.00002908,0.00000061,0.00001705,-0.000002
 12,0.00000061,0.00000079,0.00009775,-0.00006512,-0.00003940,0.00001390
 ,-0.00000369,0.00000541,0.00000599,-0.00000269,0.00000056,0.00002871,-
 0.00009934,-0.00013140,0.00037373,-0.00024471,-0.00005099,-0.00006617,
 -0.00011334,-0.00020137,0.00000806,0.00009486,0.00009735,-0.00004775,-
 0.00005247,-0.00008384,0.00003287,-0.00002014,0.00000156,0.00000651,0.
 00000659,0.00001507,-0.00001700,0.00009581,0.00006284,0.00001206,-0.00
 001301,0.00000841,0.00003271,-0.00000737,0.00000400,0.00053708,-0.0009
 1199,-0.00025957,-0.00000199,0.00000319,-0.00000088,-0.00000365,0.0000
 1626,0.00000682,-0.00000286,0.00001536,0.00000865,0.00006255,0.0007184
 5,0.00065445,-0.00041883,0.00030926,-0.00006620,0.00000109,-0.00000201
 ,-0.00000133,0.00001116,-0.00001509,-0.00000115,-0.00000284,0.00000869
 ,0.00000699,-0.00000258,0.00001058,0.00000098,-0.00000100,-0.00000222,
 -0.00000214,0.00000043,-0.00000043,-0.00000131,-0.00001045,0.00000383,
 -0.00002084,-0.00000267,0.00000392,-0.00000137,-0.00485807,-0.03708914
 ,-0.00872228,-0.00317580,0.00131697,-0.00499959,0.00112021,-0.00048952
 ,-0.00059842,0.00132285,0.00044680,0.00155570,-0.00182595,0.00007077,-
 0.00061055,-0.00015085,0.00014242,0.00009313,-0.00022058,-0.00024054,0
 .00004060,-0.00002161,0.00011073,0.00008364,-0.00005244,0.00023056,-0.
 00014369,-0.01784745,0.54495565,-0.00011250,0.00030384,0.00041843,0.00
 006529,-0.00003674,-0.00001546,0.00001388,0.00003136,0.00005919,0.0000
 8387,-0.00008762,-0.00008579,0.00001356,-0.00000107,0.00000390,0.00000
 754,-0.00000436,-0.00000106,0.00001863,-0.00013739,-0.00022447,0.00033
 120,-0.00030211,-0.00007707,-0.00011645,-0.00000508,-0.00013649,0.0000
 6078,-0.00004186,0.00008142,-0.00012776,0.00006762,-0.00016336,0.00003
 639,-0.00000605,-0.00000243,0.00000020,0.00001666,0.00002505,-0.000009
 28,0.00006915,-0.00000644,-0.00005648,-0.00000046,-0.00000191,0.000014
 02,-0.00000436,-0.00001561,0.00050863,-0.00090362,-0.00071281,-0.00000
 204,0.00000690,0.00002119,0.00000427,-0.00000898,-0.00001079,-0.000021
 51,0.00002971,-0.00000626,-0.00003816,0.00045412,0.00089825,-0.0006862
 7,0.00012325,0.00003565,-0.00000996,-0.00000707,-0.00000312,0.00002064
 ,-0.00007725,-0.00005647,0.00000256,0.00004269,0.00006906,0.00002237,0
 .00001620,0.00002590,-0.00000538,-0.00000210,-0.00000648,0.00000085,0.
 00000452,0.00000287,-0.00001781,0.00000055,0.00000008,-0.00000454,0.00
 000266,-0.00000308,-0.02855662,-0.00895281,-0.08628476,-0.01658935,-0.
 00473859,-0.02156661,0.00467144,-0.00032822,-0.00339782,-0.00160700,0.
 00072672,0.00241102,-0.00127822,0.00040586,0.00311477,-0.00015653,0.00
 029294,-0.00001467,-0.00028248,-0.00006926,-0.00003417,-0.00004437,0.0
 0007100,0.00012544,-0.00001775,0.00004332,-0.00009223,-0.10015379,-0.0
 1772442,0.44462489,-0.00005556,0.00002379,-0.00001998,-0.00000033,0.00
 000862,0.00001340,-0.00000824,-0.00000643,-0.00001757,0.00004068,-0.00
 000971,0.00001660,0.00000308,-0.00000020,0.00000084,0.00000173,0.00000
 021,0.00000084,0.00003181,-0.00002263,0.00002494,0.00003662,-0.0000097
 2,0.00005400,-0.00001190,-0.00003746,-0.00007950,-0.00003326,0.0000351
 9,0.00005272,0.00005719,-0.00003692,-0.00003960,0.00000806,-0.00000388
 ,-0.00000284,-0.00000077,0.00000511,0.00000087,-0.00001674,0.00001197,
 0.00000173,-0.00001139,-0.00000616,-0.00000045,-0.00000229,0.00000266,
 0.00000038,0.00020624,-0.00015496,-0.00006650,0.00000096,0.00000166,0.
 00000494,0.00000274,0.00000214,-0.00000071,0.00000342,-0.00000040,-0.0
 0000035,-0.00008755,0.00011640,0.00010641,-0.00020980,0.00001462,-0.00
 005695,-0.00000181,-0.00000071,0.00000053,-0.00000218,0.00000214,-0.00
 000113,0.00000004,-0.00000088,0.00000023,-0.00000450,0.00000047,0.0000
 0016,0.00000065,0.00000051,0.00000097,0.00000058,-0.00000157,-0.000001
 80,-0.00000456,-0.00000148,-0.00000356,0.00000058,-0.00000021,0.000000
 18,0.01111781,-0.00302775,-0.01588948,-0.00430330,-0.00070396,-0.00389
 022,0.00162169,-0.00021347,-0.00130765,-0.00012413,0.00026015,0.000012
 39,-0.00014081,-0.00025581,0.00017180,-0.00002438,0.00002437,-0.000024
 99,-0.00002601,-0.00001659,-0.00003515,-0.00001456,0.00003896,0.000005
 96,0.00000721,-0.00001119,0.00000548,-0.12356800,0.02321898,0.12220560
 ,0.13352558,0.00006739,0.00001495,0.00005028,-0.00000409,-0.00000682,-
 0.00001004,0.00000720,0.00000840,0.00001588,-0.00004677,0.00000301,-0.
 00001850,-0.00000168,0.00000118,-0.00000182,-0.00000167,0.00000118,-0.
 00000137,-0.00005401,-0.00001631,-0.00003698,-0.00003155,-0.00003067,-
 0.00004695,0.00000977,0.00003205,0.00004141,-0.00000039,-0.00002677,-0
 .00001723,0.00000316,0.00001001,0.00000347,-0.00000325,0.00000470,-0.0
 0000148,0.00000497,0.00000244,-0.00000238,-0.00000746,-0.00000214,-0.0
 0000426,-0.00000533,0.00000120,-0.00000159,-0.00000256,0.00000430,-0.0
 0000003,0.00004329,0.00003187,0.00001993,0.00000072,-0.00000045,0.0000
 0227,0.00000272,-0.00000138,-0.00000094,0.00000277,-0.00000073,-0.0000
 0344,-0.00002102,-0.00002758,-0.00002010,-0.00003938,-0.00002522,-0.00
 002493,-0.00000161,0.00000028,0.00000108,-0.00000528,0.00001008,-0.000
 00208,0.00000104,-0.00000554,-0.00000083,-0.00000157,-0.00000664,-0.00
 000022,0.00000080,0.00000227,0.00000152,-0.00000024,0.00000018,-0.0000
 0069,-0.00000085,-0.00000158,0.00000254,0.00000177,-0.00000249,0.00000
 135,0.00167751,-0.00133937,-0.00248773,-0.00080579,-0.00045044,-0.0006
 7192,0.00026915,0.00042161,-0.00024284,0.00009651,0.00012151,-0.000221
 99,-0.00024228,0.00021204,0.00031979,0.00002370,0.00002901,0.00003667,
 -0.00000310,0.00000298,-0.00000919,0.00003914,-0.00000745,-0.00000995,
 0.00000063,-0.00000500,0.00001084,0.02380749,-0.05538022,-0.03584890,-
 0.02497230,0.05387791,-0.00009049,-0.00004387,-0.00015206,-0.00002130,
 0.00003273,0.00003649,-0.00002369,-0.00002745,-0.00006130,0.00007141,0
 .00000529,0.00006352,0.00000358,-0.00000024,0.00000090,0.00000165,0.00
 000126,0.00000202,0.00007212,0.00001293,0.00010813,0.00001183,0.000064
 89,0.00014182,0.00000796,-0.00009034,-0.00014744,-0.00009780,0.0000966
 4,0.00010477,0.00016646,-0.00010084,-0.00005974,0.00001105,-0.00000864
 ,-0.00000674,-0.00000188,0.00000219,-0.00000553,-0.00004088,0.00001120
 ,0.00000634,-0.00001648,-0.00001472,-0.00000020,-0.00000641,0.00000699
 ,0.00000461,0.00037980,-0.00017843,-0.00002811,0.00000297,0.00000200,0
 .00000840,0.00000634,0.00000741,-0.00000035,0.00001510,-0.00000842,0.0
 0000161,-0.00020747,0.00017397,0.00006747,-0.00035690,0.00000814,-0.00
 014405,-0.00000254,-0.00000013,0.00000232,-0.00000763,0.00002356,0.000
 01486,-0.00000356,-0.00001295,-0.00001916,-0.00001883,-0.00000126,-0.0
 0000691,0.00000378,0.00000188,0.00000451,0.00000182,-0.00000604,-0.000
 00561,-0.00000617,-0.00000259,-0.00000807,0.00000227,-0.00000005,0.000
 00036,0.00981136,-0.00276912,-0.01538458,-0.00503241,-0.00079343,-0.00
 410748,0.00166793,-0.00014539,-0.00082836,-0.00025963,0.00015316,0.000
 51828,-0.00024701,0.00002946,0.00051602,-0.00000771,-0.00002024,-0.000
 06061,0.00001132,-0.00000485,-0.00003722,-0.00004005,0.00004039,-0.000
 01212,0.00001590,-0.00003350,0.00001529,0.12555164,-0.03587481,-0.2372
 6486,-0.13143659,0.03957023,0.25473038,0.00010316,-0.00015440,-0.00017
 661,-0.00003838,0.00001569,0.00000150,-0.00000197,-0.00001043,-0.00001
 846,-0.00007889,0.00005067,0.00003163,-0.00000811,0.00000192,-0.000003
 98,-0.00000540,0.00000320,-0.00000023,-0.00004328,0.00007331,0.0000800
 4,-0.00020352,0.00014053,0.00001775,0.00006599,0.00002953,0.00009309,-
 0.00005226,-0.00000343,-0.00003727,0.00010819,-0.00003360,0.00005176,-
 0.00001960,0.00000874,-0.00000262,0.00000255,-0.00000838,-0.00001377,-
 0.00002559,-0.00003654,-0.00000863,0.00000052,-0.00000079,-0.00000389,
 -0.00001722,0.00001692,0.00000297,-0.00003573,0.00042992,0.00028560,0.
 00000378,-0.00000265,-0.00000014,0.00000462,-0.00000152,0.00000129,0.0
 0001419,-0.00001809,-0.00000272,-0.00010503,-0.00024855,-0.00039123,0.
 00006992,-0.00015202,-0.00010747,0.00000010,0.00000332,0.00000325,-0.0
 0002272,0.00005685,0.00001658,0.00000216,-0.00003077,-0.00002986,-0.00
 001288,-0.00002047,-0.00001179,0.00000449,0.00000595,0.00000619,-0.000
 00066,-0.00000252,-0.00000247,0.00000429,-0.00000516,0.00000451,0.0000
 0605,-0.00000730,0.00000466,-0.01448197,0.01040888,-0.00791688,0.00128
 046,-0.00126628,0.00196360,-0.00017567,-0.00012235,0.00027408,0.000025
 40,0.00000274,-0.00018802,0.00075320,-0.00007861,-0.00119690,0.0001084
 2,-0.00010953,0.00000407,0.00013150,0.00008657,0.00001019,0.00003257,-
 0.00007067,-0.00005092,0.00001518,-0.00006816,0.00005668,-0.13117330,0
 .12603691,-0.01209710,-0.00886919,0.01345799,-0.00240454,0.13984646,-0
 .00004900,-0.00002443,-0.00006994,-0.00000151,0.00000611,0.00000847,-0
 .00000823,-0.00000708,-0.00001646,0.00002978,0.00000123,0.00002240,0.0
 0000029,0.00000016,0.00000049,0.00000094,-0.00000005,0.00000073,0.0000
 3830,0.00001571,0.00004416,-0.00001009,0.00004378,0.00004454,-0.000004
 76,-0.00001786,-0.00002987,-0.00001348,0.00001757,0.00001853,0.0000271
 9,-0.00001766,-0.00000622,0.00000103,-0.00000132,-0.00000101,-0.000004
 09,0.00000042,-0.00000051,0.00000188,-0.00000795,-0.00000250,-0.000002
 89,-0.00000067,0.00000031,-0.00000398,0.00000129,-0.00000230,-0.000023
 96,0.00005245,0.00001688,0.00000014,-0.00000023,0.00000176,0.00000063,
 -0.00000131,-0.00000110,0.00000017,-0.00000029,-0.00000118,-0.00003297
 ,-0.00001717,-0.00005570,0.00001941,-0.00001708,0.00000622,-0.00000098
 ,-0.00000029,0.00000015,-0.00000020,-0.00000505,-0.00000599,0.00000041
 ,0.00000308,0.00000588,0.00000037,0.00000203,0.00000211,-0.00000024,-0
 .00000048,-0.00000032,0.00000047,-0.00000045,-0.00000040,0.00000043,-0
 .00000069,-0.00000033,0.00000003,-0.00000002,-0.00000011,-0.00476850,0
 .00824071,-0.00255992,-0.00069416,0.00054334,0.00063690,-0.00026542,0.
 00012315,0.00010094,0.00001898,-0.00030746,-0.00000986,0.00036282,-0.0
 0030299,0.00089670,-0.00000693,-0.00002315,-0.00002587,0.00003202,0.00
 001825,-0.00000754,-0.00002143,-0.00000250,-0.00000543,0.00000349,-0.0
 0002617,0.00000418,0.12173935,-0.23171245,0.02451032,0.00117734,-0.003
 15567,0.00056802,-0.13256624,0.24656278,0.00003727,-0.00014121,-0.0002
 0070,-0.00002546,0.00001256,0.00000320,-0.00000462,-0.00001060,-0.0000
 2008,-0.00003859,0.00003995,0.00003821,-0.00000679,0.00000119,-0.00000
 229,-0.00000326,0.00000196,0.00000057,-0.00000105,0.00006375,0.0001046
 7,-0.00017798,0.00014888,0.00004419,0.00004677,0.00002194,0.00007431,-
 0.00002719,-0.00000485,-0.00003749,0.00006383,-0.00001666,0.00005852,-
 0.00001770,0.00000685,-0.00000006,-0.00000228,-0.00000603,-0.00001043,
 -0.00000191,-0.00003972,-0.00001102,0.00001009,0.00000189,-0.00000235,
 -0.00001459,0.00000826,0.00000229,-0.00020798,0.00046628,0.00027775,0.
 00000159,-0.00000210,-0.00000514,-0.00000029,-0.00000250,0.00000228,0.
 00000622,-0.00001375,-0.00000099,-0.00003485,-0.00028717,-0.00040648,0
 .00022773,-0.00013591,-0.00003602,0.00000241,0.00000263,0.00000131,-0.
 00001351,0.00003252,0.00001241,0.00000254,-0.00001744,-0.00002003,-0.0
 0000469,-0.00001121,-0.00000761,0.00000180,0.00000249,0.00000270,-0.00
 000079,-0.00000075,-0.00000024,0.00000658,-0.00000286,0.00000437,0.000
 00300,-0.00000396,0.00000262,-0.01858864,0.01203824,-0.01014852,-0.000
 55732,0.00169516,0.00270102,-0.00015498,-0.00021114,0.00035596,0.00019
 695,-0.00007248,-0.00035772,0.00114584,-0.00086846,-0.00012577,0.00007
 707,-0.00012562,-0.00002516,0.00012540,0.00008345,0.00000203,0.0000113
 3,-0.00004569,-0.00006118,0.00002248,-0.00006764,0.00006315,-0.0134096
 8,0.03105417,-0.04870942,0.01514035,-0.02356160,0.00532464,0.01926921,
 -0.02580550,0.05131900,-0.00002368,-0.00012783,-0.00018412,-0.00003358
 ,0.00003593,0.00002906,-0.00001989,-0.00003018,-0.00005704,0.00002355,
 0.00003396,0.00005923,-0.00000160,-0.00000193,0.00000075,-0.00000181,0
 .00000071,0.00000239,0.00005071,0.00008160,0.00009976,-0.00004351,0.00
 014603,0.00008894,0.00003593,-0.00008068,-0.00005940,-0.00007734,0.000
 10680,0.00003799,0.00014535,-0.00011154,0.00001329,-0.00000382,-0.0000
 1067,-0.00000060,-0.00000320,-0.00001284,-0.00000584,-0.00002911,-0.00
 000775,0.00002066,0.00001259,-0.00001157,0.00000161,-0.00000427,0.0000
 0384,0.00001066,0.00013915,0.00006499,0.00019281,0.00000308,-0.0000014
 4,-0.00000355,0.00000137,0.00001198,0.00000453,0.00001779,-0.00001682,
 0.00000878,-0.00012294,0.00007281,-0.00020134,-0.00005990,0.00000798,-
 0.00012980,0.00000341,0.00000275,0.00000160,-0.00000826,0.00004059,0.0
 0003772,-0.00000541,-0.00002227,-0.00004325,-0.00002262,-0.00000052,-0
 .00001682,0.00000463,-0.00000088,0.00000460,0.00000114,-0.00000661,-0.
 00000468,0.00000041,-0.00000012,-0.00000879,0.00000171,0.00000155,0.,-
 0.01469861,-0.01215892,-0.00377226,0.00129356,0.00193867,0.00123160,-0
 .00015873,0.00018374,0.00022369,0.00072234,-0.00037836,-0.00110017,0.0
 0007253,-0.00006390,-0.00019087,0.00002549,-0.00012508,-0.00000513,0.0
 0010237,0.00002345,0.00002434,-0.00003379,-0.00003913,-0.00000924,-0.0
 0001339,-0.00001622,-0.00002298,-0.13636090,-0.12414378,0.03390962,-0.
 00914542,-0.01326556,0.00251368,0.01278816,0.01502354,-0.00310429,0.14
 542651,0.00004128,-0.00003800,-0.00002464,-0.00000814,0.00000214,-0.00
 000410,0.00000256,-0.00000088,0.00000115,-0.00002837,0.00001499,-0.000
 00051,-0.00000273,-0.00000029,-0.00000064,-0.00000185,0.00000018,0.000
 00002,-0.00002148,0.00001823,0.00000760,-0.00005022,0.00001878,-0.0000
 1383,0.00001731,0.00001403,0.00004182,-0.00000020,-0.00000486,-0.00002
 421,0.00000252,0.00000121,0.00002421,-0.00000638,0.00000066,0.00000136
 ,0.00000102,-0.00000446,-0.00000244,-0.00000242,-0.00000611,0.00000010
 ,0.00000701,0.00000033,-0.00000058,-0.00000031,-0.00000122,0.00000438,
 -0.00004268,0.00008082,0.00006876,0.00000052,-0.00000081,-0.00000360,-
 0.00000073,0.00000213,0.00000133,0.00000296,-0.00000478,0.00000288,0.0
 0000984,-0.00005507,-0.00007949,0.00005324,-0.00001443,-0.00001455,0.0
 0000216,0.00000114,-0.00000013,-0.00000048,0.00001000,0.00001486,-0.00
 000158,-0.00000579,-0.00001523,-0.00000403,-0.00000043,-0.00000551,0.0
 0000088,-0.00000078,0.00000085,-0.00000016,-0.00000092,-0.00000012,0.0
 0000102,0.00000072,0.00000071,-0.00000016,0.00000103,-0.00000048,-0.00
 176149,0.00309641,-0.00226048,0.00042504,0.00009611,0.00025072,0.00019
 608,0.00014756,-0.00005772,0.00001441,-0.00033442,-0.00076495,0.000058
 88,-0.00031198,0.00000562,0.00004052,-0.00002091,0.00001222,0.00001264
 ,0.00001227,0.00000711,0.00002230,-0.00001866,-0.00001627,0.00000912,-
 0.00000157,0.00002051,-0.12057948,-0.22231157,0.04206888,0.00454914,0.
 00569930,-0.00067502,-0.01581119,-0.01998158,0.00577268,0.13285365,0.2
 3390150,0.00002169,-0.00005905,-0.00008010,-0.00001763,0.00001351,0.00
 000895,-0.00000552,-0.00000946,-0.00001826,-0.00001399,0.00001847,0.00
 002033,-0.00000208,-0.00000069,-0.00000036,-0.00000173,0.00000110,0.00
 000059,-0.00000227,0.00002628,0.00004108,-0.00004306,0.00007091,0.0000
 2254,0.00002527,-0.00002446,0.00000278,-0.00002744,0.00004154,-0.00000
 563,0.00006067,-0.00005260,0.00003412,-0.00000710,-0.00000278,0.000001
 01,0.00000075,-0.00000413,-0.00000435,-0.00000573,-0.00001167,0.000013
 76,0.00001737,-0.00000348,0.00000132,-0.00000314,0.00000171,0.00000688
 ,-0.00003824,0.00015109,0.00020738,0.00000109,-0.00000206,-0.00000620,
 -0.00000067,0.00000647,0.00000427,0.00000903,-0.00000942,0.00000338,-0
 .00001658,-0.00001906,-0.00022505,0.00010691,0.00000281,-0.00006386,0.
 00000313,0.00000227,0.00000096,-0.00000684,0.00002574,0.00001959,-0.00
 000111,-0.00001387,-0.00002376,-0.00001014,-0.00000321,-0.00000928,0.0
 0000189,-0.00000035,0.00000213,-0.00000003,-0.00000224,-0.00000193,0.0
 0000271,-0.00000024,-0.00000381,0.00000140,-0.00000031,0.00000084,-0.0
 1967039,-0.01673449,-0.00474570,-0.00048061,-0.00051253,0.00311360,-0.
 00019413,0.00025170,0.00026915,0.00108652,0.00089611,-0.00013140,0.000
 16547,-0.00002731,-0.00040658,0.00002154,-0.00009012,0.00001682,0.0000
 7343,-0.00000138,0.00000625,0.00000019,-0.00000228,-0.00001338,-0.0000
 0991,0.00000059,-0.00000133,0.03101583,0.03552908,-0.05302350,0.015053
 71,0.02317271,-0.00333223,0.00248687,0.00171837,-0.00020653,-0.0295971
 3,-0.04434325,0.05850549\\-0.00000036,0.00000065,-0.00000082,0.0000000
 6,0.00000025,-0.00000138,-0.00000018,0.00000049,-0.00000161,-0.0000002
 7,0.00000072,-0.00000138,0.00000030,0.00000023,-0.00000134,-0.00000006
 ,0.00000060,-0.00000186,-0.00000064,0.00000069,-0.00000096,-0.00000021
 ,0.00000032,-0.00000080,0.00000017,0.00000008,-0.00000106,0.00000006,0
 .00000012,-0.00000049,0.00000010,-0.00000006,-0.00000015,0.00000036,0.
 ,-0.00000064,-0.00000047,0.00000078,-0.00000158,0.00000026,-0.00000026
 ,0.00000015,0.00000016,-0.00000009,0.00000004,0.00000039,-0.00000045,0
 .00000045,0.00000037,-0.00000032,0.00000051,0.00000066,-0.00000060,0.0
 0000063,0.00000021,-0.00000031,0.00000067,0.00000063,-0.00000052,0.000
 00023,0.00000014,-0.00000016,0.00000028,0.00000018,-0.00000039,0.00000
 077,0.00000032,-0.00000020,0.,0.00000062,-0.00000043,0.00000078,0.0000
 0083,-0.00000072,0.00000035,0.00000081,-0.00000052,-0.00000009,0.00000
 104,-0.00000067,0.00000003,0.00000090,-0.00000050,-0.00000027,0.000000
 56,-0.00000037,0.,0.00000032,-0.00000044,0.00000063,-0.00000066,0.0000
 0020,0.00000078,-0.00000032,-0.00000014,0.00000113,-0.00000014,-0.0000
 0021,0.00000102,-0.00000024,-0.00000020,0.00000115,-0.00000044,-0.0000
 0014,0.00000143,-0.00000022,0.00000029,-0.00000033,-0.00000044,0.00000
 032,-0.00000014,-0.00000054,0.00000045,-0.00000031,-0.00000013,0.00000
 014,-0.00000021,-0.00000098,0.00000033,0.00000108,-0.00000119,0.000000
 51,0.00000089,-0.00000108,0.00000029,0.00000136,-0.00000088,0.00000023
 ,0.00000107\\\@


 LAWS OF PROGRAMMING DEFINITION:  A WORKING PROGRAM
                                  IS ONE THAT HAS
                                  ONLY UNOBSERVED
                                  BUGS.
 Job cpu time:       0 days  1 hours 17 minutes 51.0 seconds.
 File lengths (MBytes):  RWF=    701 Int=      0 D2E=      0 Chk=     12 Scr=      1
 Normal termination of Gaussian 09 at Thu Mar 25 03:26:52 2021.
