 Entering Gaussian System, Link 0=g09
 Initial command:
 /opt/software/gaussian/g09.e01/l1.exe "/localscratch/enas93.65719470.0/Gau-254444.inp" -scrdir="/localscratch/enas93.65719470.0/"
 Entering Link 1 = /opt/software/gaussian/g09.e01/l1.exe PID=    254445.
  
 Copyright (c) 1988,1990,1992,1993,1995,1998,2003,2009,2015,
            Gaussian, Inc.  All Rights Reserved.
  
 This is part of the Gaussian(R) 09 program.  It is based on
 the Gaussian(R) 03 system (copyright 2003, Gaussian, Inc.),
 the Gaussian(R) 98 system (copyright 1998, Gaussian, Inc.),
 the Gaussian(R) 94 system (copyright 1995, Gaussian, Inc.),
 the Gaussian 92(TM) system (copyright 1992, Gaussian, Inc.),
 the Gaussian 90(TM) system (copyright 1990, Gaussian, Inc.),
 the Gaussian 88(TM) system (copyright 1988, Gaussian, Inc.),
 the Gaussian 86(TM) system (copyright 1986, Carnegie Mellon
 University), and the Gaussian 82(TM) system (copyright 1983,
 Carnegie Mellon University). Gaussian is a federally registered
 trademark of Gaussian, Inc.
  
 This software contains proprietary and confidential information,
 including trade secrets, belonging to Gaussian, Inc.
  
 This software is provided under written license and may be
 used, copied, transmitted, or stored only in accord with that
 written license.
  
 The following legend is applicable only to US Government
 contracts under FAR:
  
                    RESTRICTED RIGHTS LEGEND
  
 Use, reproduction and disclosure by the US Government is
 subject to restrictions as set forth in subparagraphs (a)
 and (c) of the Commercial Computer Software - Restricted
 Rights clause in FAR 52.227-19.
  
 Gaussian, Inc.
 340 Quinnipiac St., Bldg. 40, Wallingford CT 06492
  
  
 ---------------------------------------------------------------
 Warning -- This program may not be used in any manner that
 competes with the business of Gaussian, Inc. or will provide
 assistance to any competitor of Gaussian, Inc.  The licensee
 of this program is prohibited from giving any competitor of
 Gaussian, Inc. access to this program.  By using this program,
 the user acknowledges that Gaussian, Inc. is engaged in the
 business of creating and licensing software in the field of
 computational chemistry and represents and warrants to the
 licensee that it is not a competitor of Gaussian, Inc. and that
 it will not use this program in any manner prohibited above.
 ---------------------------------------------------------------
  

 Cite this work as:
 Gaussian 09, Revision E.01,
 M. J. Frisch, G. W. Trucks, H. B. Schlegel, G. E. Scuseria, 
 M. A. Robb, J. R. Cheeseman, G. Scalmani, V. Barone, B. Mennucci, 
 G. A. Petersson, H. Nakatsuji, M. Caricato, X. Li, H. P. Hratchian, 
 A. F. Izmaylov, J. Bloino, G. Zheng, J. L. Sonnenberg, M. Hada, 
 M. Ehara, K. Toyota, R. Fukuda, J. Hasegawa, M. Ishida, T. Nakajima, 
 Y. Honda, O. Kitao, H. Nakai, T. Vreven, J. A. Montgomery, Jr., 
 J. E. Peralta, F. Ogliaro, M. Bearpark, J. J. Heyd, E. Brothers, 
 K. N. Kudin, V. N. Staroverov, T. Keith, R. Kobayashi, J. Normand, 
 K. Raghavachari, A. Rendell, J. C. Burant, S. S. Iyengar, J. Tomasi, 
 M. Cossi, N. Rega, J. M. Millam, M. Klene, J. E. Knox, J. B. Cross, 
 V. Bakken, C. Adamo, J. Jaramillo, R. Gomperts, R. E. Stratmann, 
 O. Yazyev, A. J. Austin, R. Cammi, C. Pomelli, J. W. Ochterski, 
 R. L. Martin, K. Morokuma, V. G. Zakrzewski, G. A. Voth, 
 P. Salvador, J. J. Dannenberg, S. Dapprich, A. D. Daniels, 
 O. Farkas, J. B. Foresman, J. V. Ortiz, J. Cioslowski, 
 and D. J. Fox, Gaussian, Inc., Wallingford CT, 2013.
 
 ******************************************
 Gaussian 09:  EM64L-G09RevE.01 30-Nov-2015
                 6-Apr-2021 
 ******************************************
 %nprocshared=32
 Will use up to   32 processors via shared memory.
 %mem=20GB
 ----------------------------------------------------------------------
 # opt=(calcall,tight,ts,modredundant,noeigentest,maxcycle=500) freq b3
 lyp/6-31g(d) nosymm
 ----------------------------------------------------------------------
 1/5=1,6=500,7=10,10=4,11=1,14=-1,18=120,26=3,38=1/1,3;
 2/9=110,12=2,15=1,17=6,18=5,40=1/2;
 3/5=1,6=6,7=1,11=2,16=1,25=1,30=1,71=2,74=-5,140=1/1,2,3;
 4//1;
 5/5=2,38=5/2;
 8/6=4,10=90,11=11/1;
 11/6=1,8=1,9=11,15=111,16=1,31=1/1,2,10;
 10/6=1,31=1/2;
 6/7=2,8=2,9=2,10=2,18=1,28=1/1;
 7/10=1,25=1,30=1/1,2,3,16;
 1/5=1,6=500,7=10,10=4,11=1,14=-1,18=20,26=3/3(3);
 2/9=110,15=1/2;
 7/8=1,9=1,25=1,30=1,44=-1/16;
 99//99;
 2/9=110,15=1/2;
 3/5=1,6=6,7=1,11=2,16=1,25=1,30=1,71=2,74=-5,140=1/1,2,3;
 4/5=5,16=3,69=1/1;
 5/5=2,38=5/2;
 8/6=4,10=90,11=11/1;
 11/6=1,8=1,9=11,15=111,16=1,31=1/1,2,10;
 10/6=1,31=1/2;
 7/10=1,25=1,30=1/1,2,3,16;
 1/5=1,6=500,7=10,10=4,11=1,14=-1,18=20,26=3/3(-8);
 2/9=110,15=1/2;
 6/7=2,8=2,9=2,10=2,18=1,19=2,28=1/1;
 7/8=1,9=1,25=1,30=1,44=-1/16;
 99//99;
 -------------------
 Title Card Required
 -------------------
 Symbolic Z-matrix:
 Charge =  1 Multiplicity = 1
 C                     0.61951  -0.62131  -0.18212 
 C                     2.53761  -2.65331  -0.50827 
 C                     2.9258   -1.36397  -0.33103 
 N                     2.00834  -0.39258  -0.17112 
 H                     3.25704  -3.44694  -0.65674 
 H                     3.96244  -1.04642  -0.32937 
 O                    -0.192     0.30163  -0.05487 
 N                     0.22345  -1.93724  -0.32481 
 C                     1.13044  -2.90899  -0.49922 
 N                     0.69026  -4.17356  -0.648 
 H                    -0.29435  -4.38427  -0.69719 
 H                     1.33887  -4.93121  -0.79833 
 H                     2.30958   0.5883   -0.08803 
 S                    -4.2197   -2.15586  -0.06622 
 C                    -4.63229  -0.87293  -1.30528 
 H                    -5.68605  -0.59924  -1.2123 
 H                    -4.00093   0.01098  -1.18558 
 H                    -4.47012  -1.31496  -2.29451 
 C                    -4.51059  -1.23777   1.48358 
 H                    -3.89242  -0.33539   1.5229 
 H                    -5.56986  -0.97233   1.55021 
 H                    -4.26198  -1.90105   2.3125 
 C                    -1.86943  -2.08166  -0.16853 
 H                    -1.80048  -2.78237   0.65022 
 H                    -1.85638  -2.43446  -1.18978 
 H                    -1.82016  -1.01337   0.00454 
 N                     0.22383   3.04149   1.10253 
 H                     0.71409   2.6498    1.91761 
 C                     1.08346   3.98211   0.40652 
 H                     0.49811   4.41169  -0.41959 
 C                     1.5136    5.13626   1.34944 
 C                     2.33898   3.34426  -0.21291 
 H                     2.12516   4.75385   2.18011 
 H                     2.0974    5.91177   0.83558 
 H                     0.61216   5.58592   1.76983 
 O                     2.82183   2.25627   0.05327 
 O                     3.06771   4.12213  -1.03342 
 H                    -0.03531   2.26154   0.5062 
 H                     2.65359   5.00519  -1.12164 
 
 Add virtual bond connecting atoms O36        and H13        Dist= 3.31D+00.
 Add virtual bond connecting atoms C23        and N8         Dist= 3.98D+00.
 Add virtual bond connecting atoms H26        and O7         Dist= 3.96D+00.
 Add virtual bond connecting atoms C23        and S14        Dist= 4.45D+00.
 The following ModRedundant input section has been read:
 A       8      23      14 F                                                   
 

 GradGradGradGradGradGradGradGradGradGradGradGradGradGradGradGradGradGrad
 Berny optimization.
 Initialization pass.
                           ----------------------------
                           !    Initial Parameters    !
                           ! (Angstroms and Degrees)  !
 --------------------------                            --------------------------
 ! Name  Definition              Value          Derivative Info.                !
 --------------------------------------------------------------------------------
 ! R1    R(1,4)                  1.4076         calculate D2E/DX2 analytically  !
 ! R2    R(1,7)                  1.2355         calculate D2E/DX2 analytically  !
 ! R3    R(1,8)                  1.3816         calculate D2E/DX2 analytically  !
 ! R4    R(2,3)                  1.3581         calculate D2E/DX2 analytically  !
 ! R5    R(2,5)                  1.0814         calculate D2E/DX2 analytically  !
 ! R6    R(2,9)                  1.4302         calculate D2E/DX2 analytically  !
 ! R7    R(3,4)                  1.3457         calculate D2E/DX2 analytically  !
 ! R8    R(3,6)                  1.0842         calculate D2E/DX2 analytically  !
 ! R9    R(4,13)                 1.0294         calculate D2E/DX2 analytically  !
 ! R10   R(7,26)                 2.0937         calculate D2E/DX2 analytically  !
 ! R11   R(8,9)                  1.3407         calculate D2E/DX2 analytically  !
 ! R12   R(8,23)                 2.1037         calculate D2E/DX2 analytically  !
 ! R13   R(9,10)                 1.3472         calculate D2E/DX2 analytically  !
 ! R14   R(10,11)                1.0081         calculate D2E/DX2 analytically  !
 ! R15   R(10,12)                1.0086         calculate D2E/DX2 analytically  !
 ! R16   R(13,36)                1.7506         calculate D2E/DX2 analytically  !
 ! R17   R(14,15)                1.8307         calculate D2E/DX2 analytically  !
 ! R18   R(14,19)                1.8247         calculate D2E/DX2 analytically  !
 ! R19   R(14,23)                2.3537         calculate D2E/DX2 analytically  !
 ! R20   R(15,16)                1.0927         calculate D2E/DX2 analytically  !
 ! R21   R(15,17)                1.0928         calculate D2E/DX2 analytically  !
 ! R22   R(15,18)                1.0956         calculate D2E/DX2 analytically  !
 ! R23   R(19,20)                1.0945         calculate D2E/DX2 analytically  !
 ! R24   R(19,21)                1.094          calculate D2E/DX2 analytically  !
 ! R25   R(19,22)                1.0903         calculate D2E/DX2 analytically  !
 ! R26   R(23,24)                1.0799         calculate D2E/DX2 analytically  !
 ! R27   R(23,25)                1.0806         calculate D2E/DX2 analytically  !
 ! R28   R(23,26)                1.0833         calculate D2E/DX2 analytically  !
 ! R29   R(27,28)                1.0287         calculate D2E/DX2 analytically  !
 ! R30   R(27,29)                1.4519         calculate D2E/DX2 analytically  !
 ! R31   R(27,38)                1.0154         calculate D2E/DX2 analytically  !
 ! R32   R(29,30)                1.0998         calculate D2E/DX2 analytically  !
 ! R33   R(29,31)                1.5512         calculate D2E/DX2 analytically  !
 ! R34   R(29,32)                1.5385         calculate D2E/DX2 analytically  !
 ! R35   R(31,33)                1.1001         calculate D2E/DX2 analytically  !
 ! R36   R(31,34)                1.0983         calculate D2E/DX2 analytically  !
 ! R37   R(31,35)                1.0916         calculate D2E/DX2 analytically  !
 ! R38   R(32,36)                1.2197         calculate D2E/DX2 analytically  !
 ! R39   R(32,37)                1.3451         calculate D2E/DX2 analytically  !
 ! R40   R(37,39)                0.9793         calculate D2E/DX2 analytically  !
 ! A1    A(4,1,7)              121.7264         calculate D2E/DX2 analytically  !
 ! A2    A(4,1,8)              116.0031         calculate D2E/DX2 analytically  !
 ! A3    A(7,1,8)              122.2647         calculate D2E/DX2 analytically  !
 ! A4    A(3,2,5)              121.633          calculate D2E/DX2 analytically  !
 ! A5    A(3,2,9)              116.7505         calculate D2E/DX2 analytically  !
 ! A6    A(5,2,9)              121.6148         calculate D2E/DX2 analytically  !
 ! A7    A(2,3,4)              120.3931         calculate D2E/DX2 analytically  !
 ! A8    A(2,3,6)              123.4732         calculate D2E/DX2 analytically  !
 ! A9    A(4,3,6)              116.121          calculate D2E/DX2 analytically  !
 ! A10   A(1,4,3)              123.6733         calculate D2E/DX2 analytically  !
 ! A11   A(1,4,13)             116.3713         calculate D2E/DX2 analytically  !
 ! A12   A(3,4,13)             119.86           calculate D2E/DX2 analytically  !
 ! A13   A(1,7,26)              92.5516         calculate D2E/DX2 analytically  !
 ! A14   A(1,8,9)              120.6554         calculate D2E/DX2 analytically  !
 ! A15   A(1,8,23)             110.0538         calculate D2E/DX2 analytically  !
 ! A16   A(9,8,23)             129.2689         calculate D2E/DX2 analytically  !
 ! A17   A(2,9,8)              122.4701         calculate D2E/DX2 analytically  !
 ! A18   A(2,9,10)             119.2463         calculate D2E/DX2 analytically  !
 ! A19   A(8,9,10)             118.2737         calculate D2E/DX2 analytically  !
 ! A20   A(9,10,11)            121.3791         calculate D2E/DX2 analytically  !
 ! A21   A(9,10,12)            120.7588         calculate D2E/DX2 analytically  !
 ! A22   A(11,10,12)           117.6326         calculate D2E/DX2 analytically  !
 ! A23   A(15,14,19)           100.7388         calculate D2E/DX2 analytically  !
 ! A24   A(15,14,23)            99.9936         calculate D2E/DX2 analytically  !
 ! A25   A(19,14,23)           100.3844         calculate D2E/DX2 analytically  !
 ! A26   A(14,15,16)           109.59           calculate D2E/DX2 analytically  !
 ! A27   A(14,15,17)           111.2529         calculate D2E/DX2 analytically  !
 ! A28   A(14,15,18)           107.1591         calculate D2E/DX2 analytically  !
 ! A29   A(16,15,17)           110.1965         calculate D2E/DX2 analytically  !
 ! A30   A(16,15,18)           108.702          calculate D2E/DX2 analytically  !
 ! A31   A(17,15,18)           109.8599         calculate D2E/DX2 analytically  !
 ! A32   A(14,19,20)           110.812          calculate D2E/DX2 analytically  !
 ! A33   A(14,19,21)           109.1572         calculate D2E/DX2 analytically  !
 ! A34   A(14,19,22)           107.6548         calculate D2E/DX2 analytically  !
 ! A35   A(20,19,21)           110.1581         calculate D2E/DX2 analytically  !
 ! A36   A(20,19,22)           110.209          calculate D2E/DX2 analytically  !
 ! A37   A(21,19,22)           108.7872         calculate D2E/DX2 analytically  !
 ! A38   A(8,23,14)            177.2272         frozen, calculate D2E/DX2 analyt!
 ! A39   A(8,23,24)             92.1404         calculate D2E/DX2 analytically  !
 ! A40   A(8,23,25)             86.5711         calculate D2E/DX2 analytically  !
 ! A41   A(8,23,26)             84.1991         calculate D2E/DX2 analytically  !
 ! A42   A(14,23,24)            90.5927         calculate D2E/DX2 analytically  !
 ! A43   A(14,23,25)            92.4559         calculate D2E/DX2 analytically  !
 ! A44   A(14,23,26)            93.9883         calculate D2E/DX2 analytically  !
 ! A45   A(24,23,25)           120.2623         calculate D2E/DX2 analytically  !
 ! A46   A(24,23,26)           121.0533         calculate D2E/DX2 analytically  !
 ! A47   A(25,23,26)           118.1909         calculate D2E/DX2 analytically  !
 ! A48   A(7,26,23)            130.5547         calculate D2E/DX2 analytically  !
 ! A49   A(28,27,29)           110.1416         calculate D2E/DX2 analytically  !
 ! A50   A(28,27,38)           107.1278         calculate D2E/DX2 analytically  !
 ! A51   A(29,27,38)           111.5418         calculate D2E/DX2 analytically  !
 ! A52   A(27,29,30)           107.3372         calculate D2E/DX2 analytically  !
 ! A53   A(27,29,31)           110.781          calculate D2E/DX2 analytically  !
 ! A54   A(27,29,32)           114.0531         calculate D2E/DX2 analytically  !
 ! A55   A(30,29,31)           108.2735         calculate D2E/DX2 analytically  !
 ! A56   A(30,29,32)           107.0886         calculate D2E/DX2 analytically  !
 ! A57   A(31,29,32)           109.0824         calculate D2E/DX2 analytically  !
 ! A58   A(29,31,33)           110.7632         calculate D2E/DX2 analytically  !
 ! A59   A(29,31,34)           112.8525         calculate D2E/DX2 analytically  !
 ! A60   A(29,31,35)           108.1566         calculate D2E/DX2 analytically  !
 ! A61   A(33,31,34)           107.6514         calculate D2E/DX2 analytically  !
 ! A62   A(33,31,35)           108.1481         calculate D2E/DX2 analytically  !
 ! A63   A(34,31,35)           109.1638         calculate D2E/DX2 analytically  !
 ! A64   A(29,32,36)           127.23           calculate D2E/DX2 analytically  !
 ! A65   A(29,32,37)           116.6132         calculate D2E/DX2 analytically  !
 ! A66   A(36,32,37)           115.7526         calculate D2E/DX2 analytically  !
 ! A67   A(13,36,32)           135.763          calculate D2E/DX2 analytically  !
 ! A68   A(32,37,39)           110.3225         calculate D2E/DX2 analytically  !
 ! A69   L(4,13,36,38,-1)      180.0            calculate D2E/DX2 analytically  !
 ! A70   L(4,13,36,38,-2)      180.0            calculate D2E/DX2 analytically  !
 ! D1    D(7,1,4,3)           -178.7229         calculate D2E/DX2 analytically  !
 ! D2    D(7,1,4,13)            -2.2883         calculate D2E/DX2 analytically  !
 ! D3    D(8,1,4,3)              2.133          calculate D2E/DX2 analytically  !
 ! D4    D(8,1,4,13)           178.5676         calculate D2E/DX2 analytically  !
 ! D5    D(4,1,7,26)          -174.4271         calculate D2E/DX2 analytically  !
 ! D6    D(8,1,7,26)             4.6632         calculate D2E/DX2 analytically  !
 ! D7    D(4,1,8,9)             -2.791          calculate D2E/DX2 analytically  !
 ! D8    D(4,1,8,23)           175.6591         calculate D2E/DX2 analytically  !
 ! D9    D(7,1,8,9)            178.0699         calculate D2E/DX2 analytically  !
 ! D10   D(7,1,8,23)            -3.48           calculate D2E/DX2 analytically  !
 ! D11   D(5,2,3,4)            178.8624         calculate D2E/DX2 analytically  !
 ! D12   D(5,2,3,6)              0.2084         calculate D2E/DX2 analytically  !
 ! D13   D(9,2,3,4)             -0.6749         calculate D2E/DX2 analytically  !
 ! D14   D(9,2,3,6)           -179.3288         calculate D2E/DX2 analytically  !
 ! D15   D(3,2,9,8)             -0.0483         calculate D2E/DX2 analytically  !
 ! D16   D(3,2,9,10)          -178.8876         calculate D2E/DX2 analytically  !
 ! D17   D(5,2,9,8)           -179.5856         calculate D2E/DX2 analytically  !
 ! D18   D(5,2,9,10)             1.5751         calculate D2E/DX2 analytically  !
 ! D19   D(2,3,4,1)             -0.4037         calculate D2E/DX2 analytically  !
 ! D20   D(2,3,4,13)          -176.7202         calculate D2E/DX2 analytically  !
 ! D21   D(6,3,4,1)            178.3458         calculate D2E/DX2 analytically  !
 ! D22   D(6,3,4,13)             2.0293         calculate D2E/DX2 analytically  !
 ! D23   D(1,4,36,32)          -25.1902         calculate D2E/DX2 analytically  !
 ! D24   D(3,4,36,32)          151.3885         calculate D2E/DX2 analytically  !
 ! D25   D(1,7,26,23)           -7.7236         calculate D2E/DX2 analytically  !
 ! D26   D(1,8,9,2)              1.872          calculate D2E/DX2 analytically  !
 ! D27   D(1,8,9,10)          -179.2779         calculate D2E/DX2 analytically  !
 ! D28   D(23,8,9,2)          -176.2473         calculate D2E/DX2 analytically  !
 ! D29   D(23,8,9,10)            2.6028         calculate D2E/DX2 analytically  !
 ! D30   D(1,8,23,24)         -122.8079         calculate D2E/DX2 analytically  !
 ! D31   D(1,8,23,25)          116.9951         calculate D2E/DX2 analytically  !
 ! D32   D(1,8,23,26)           -1.8067         calculate D2E/DX2 analytically  !
 ! D33   D(9,8,23,24)           55.4699         calculate D2E/DX2 analytically  !
 ! D34   D(9,8,23,25)          -64.7272         calculate D2E/DX2 analytically  !
 ! D35   D(9,8,23,26)          176.471          calculate D2E/DX2 analytically  !
 ! D36   D(2,9,10,11)         -176.6013         calculate D2E/DX2 analytically  !
 ! D37   D(2,9,10,12)           -2.2359         calculate D2E/DX2 analytically  !
 ! D38   D(8,9,10,11)            4.5106         calculate D2E/DX2 analytically  !
 ! D39   D(8,9,10,12)          178.876          calculate D2E/DX2 analytically  !
 ! D40   D(19,14,15,16)        -63.395          calculate D2E/DX2 analytically  !
 ! D41   D(19,14,15,17)         58.7193         calculate D2E/DX2 analytically  !
 ! D42   D(19,14,15,18)        178.8242         calculate D2E/DX2 analytically  !
 ! D43   D(23,14,15,16)       -166.087          calculate D2E/DX2 analytically  !
 ! D44   D(23,14,15,17)        -43.9726         calculate D2E/DX2 analytically  !
 ! D45   D(23,14,15,18)         76.1322         calculate D2E/DX2 analytically  !
 ! D46   D(15,14,19,20)        -57.5793         calculate D2E/DX2 analytically  !
 ! D47   D(15,14,19,21)         63.9092         calculate D2E/DX2 analytically  !
 ! D48   D(15,14,19,22)       -178.1633         calculate D2E/DX2 analytically  !
 ! D49   D(23,14,19,20)         44.7967         calculate D2E/DX2 analytically  !
 ! D50   D(23,14,19,21)        166.2852         calculate D2E/DX2 analytically  !
 ! D51   D(23,14,19,22)        -75.7873         calculate D2E/DX2 analytically  !
 ! D52   D(15,14,23,24)        174.6604         calculate D2E/DX2 analytically  !
 ! D53   D(15,14,23,25)        -65.0154         calculate D2E/DX2 analytically  !
 ! D54   D(15,14,23,26)         53.4732         calculate D2E/DX2 analytically  !
 ! D55   D(19,14,23,24)         71.6784         calculate D2E/DX2 analytically  !
 ! D56   D(19,14,23,25)       -167.9974         calculate D2E/DX2 analytically  !
 ! D57   D(19,14,23,26)        -49.5088         calculate D2E/DX2 analytically  !
 ! D58   D(8,23,26,7)            4.8723         calculate D2E/DX2 analytically  !
 ! D59   D(14,23,26,7)        -173.0216         calculate D2E/DX2 analytically  !
 ! D60   D(24,23,26,7)          93.8781         calculate D2E/DX2 analytically  !
 ! D61   D(25,23,26,7)         -78.082          calculate D2E/DX2 analytically  !
 ! D62   D(28,27,29,30)       -176.9756         calculate D2E/DX2 analytically  !
 ! D63   D(28,27,29,31)        -58.9544         calculate D2E/DX2 analytically  !
 ! D64   D(28,27,29,32)         64.5709         calculate D2E/DX2 analytically  !
 ! D65   D(38,27,29,30)         64.2064         calculate D2E/DX2 analytically  !
 ! D66   D(38,27,29,31)       -177.7724         calculate D2E/DX2 analytically  !
 ! D67   D(38,27,29,32)        -54.247          calculate D2E/DX2 analytically  !
 ! D68   D(27,29,31,33)         63.959          calculate D2E/DX2 analytically  !
 ! D69   D(27,29,31,34)       -175.2646         calculate D2E/DX2 analytically  !
 ! D70   D(27,29,31,35)        -54.3936         calculate D2E/DX2 analytically  !
 ! D71   D(30,29,31,33)       -178.5917         calculate D2E/DX2 analytically  !
 ! D72   D(30,29,31,34)        -57.8153         calculate D2E/DX2 analytically  !
 ! D73   D(30,29,31,35)         63.0557         calculate D2E/DX2 analytically  !
 ! D74   D(32,29,31,33)        -62.3806         calculate D2E/DX2 analytically  !
 ! D75   D(32,29,31,34)         58.3958         calculate D2E/DX2 analytically  !
 ! D76   D(32,29,31,35)        179.2668         calculate D2E/DX2 analytically  !
 ! D77   D(27,29,32,36)        -17.1632         calculate D2E/DX2 analytically  !
 ! D78   D(27,29,32,37)        170.4916         calculate D2E/DX2 analytically  !
 ! D79   D(30,29,32,36)       -135.7583         calculate D2E/DX2 analytically  !
 ! D80   D(30,29,32,37)         51.8965         calculate D2E/DX2 analytically  !
 ! D81   D(31,29,32,36)        107.276          calculate D2E/DX2 analytically  !
 ! D82   D(31,29,32,37)        -65.0693         calculate D2E/DX2 analytically  !
 ! D83   D(29,32,36,13)         63.8574         calculate D2E/DX2 analytically  !
 ! D84   D(37,32,36,13)       -123.7407         calculate D2E/DX2 analytically  !
 ! D85   D(29,32,37,39)         -1.0908         calculate D2E/DX2 analytically  !
 ! D86   D(36,32,37,39)       -174.3284         calculate D2E/DX2 analytically  !
 --------------------------------------------------------------------------------
 Trust Radius=3.00D-01 FncErr=1.00D-07 GrdErr=1.00D-06
 Number of steps in this run=    234 maximum allowed number of steps=    234.
 Search for a saddle point of order  1.
 GradGradGradGradGradGradGradGradGradGradGradGradGradGradGradGradGradGrad

                          Input orientation:                          
 ---------------------------------------------------------------------
 Center     Atomic      Atomic             Coordinates (Angstroms)
 Number     Number       Type             X           Y           Z
 ---------------------------------------------------------------------
      1          6           0        0.619506   -0.621311   -0.182122
      2          6           0        2.537609   -2.653308   -0.508274
      3          6           0        2.925797   -1.363968   -0.331033
      4          7           0        2.008339   -0.392576   -0.171118
      5          1           0        3.257035   -3.446935   -0.656741
      6          1           0        3.962441   -1.046421   -0.329368
      7          8           0       -0.192002    0.301625   -0.054868
      8          7           0        0.223453   -1.937241   -0.324806
      9          6           0        1.130441   -2.908993   -0.499217
     10          7           0        0.690256   -4.173563   -0.647997
     11          1           0       -0.294351   -4.384272   -0.697192
     12          1           0        1.338874   -4.931214   -0.798332
     13          1           0        2.309576    0.588299   -0.088027
     14         16           0       -4.219701   -2.155861   -0.066224
     15          6           0       -4.632292   -0.872934   -1.305277
     16          1           0       -5.686052   -0.599238   -1.212296
     17          1           0       -4.000927    0.010978   -1.185578
     18          1           0       -4.470121   -1.314959   -2.294508
     19          6           0       -4.510594   -1.237769    1.483577
     20          1           0       -3.892422   -0.335385    1.522896
     21          1           0       -5.569859   -0.972329    1.550209
     22          1           0       -4.261981   -1.901052    2.312495
     23          6           0       -1.869427   -2.081660   -0.168533
     24          1           0       -1.800478   -2.782365    0.650223
     25          1           0       -1.856376   -2.434464   -1.189782
     26          1           0       -1.820162   -1.013372    0.004541
     27          7           0        0.223833    3.041487    1.102530
     28          1           0        0.714089    2.649804    1.917610
     29          6           0        1.083461    3.982105    0.406520
     30          1           0        0.498108    4.411687   -0.419590
     31          6           0        1.513596    5.136255    1.349442
     32          6           0        2.338982    3.344264   -0.212911
     33          1           0        2.125157    4.753852    2.180111
     34          1           0        2.097395    5.911773    0.835582
     35          1           0        0.612161    5.585916    1.769830
     36          8           0        2.821828    2.256274    0.053270
     37          8           0        3.067708    4.122126   -1.033417
     38          1           0       -0.035313    2.261541    0.506199
     39          1           0        2.653588    5.005187   -1.121639
 ---------------------------------------------------------------------
                    Distance matrix (angstroms):
                    1          2          3          4          5
     1  C    0.000000
     2  C    2.813273   0.000000
     3  C    2.427487   1.358124   0.000000
     4  N    1.407586   2.346212   1.345698   0.000000
     5  H    3.894351   1.081416   2.134141   3.335293   0.000000
     6  H    3.373072   2.155050   1.084191   2.066657   2.523339
     7  O    1.235536   4.048207   3.545580   2.310180   5.129309
     8  N    1.381625   2.429348   2.762489   2.365466   3.404699
     9  C    2.365395   1.430237   2.374593   2.685276   2.199227
    10  N    3.583370   2.396541   3.604433   4.032446   2.667662
    11  H    3.906444   3.324443   4.430086   4.638186   3.673225
    12  H    4.412762   2.590358   3.932167   4.630423   2.429501
    13  H    2.080468   3.276679   2.061584   1.029448   4.183805
    14  S    5.078011   6.790000   7.194120   6.473690   7.610333
    15  C    5.376446   7.430506   7.636424   6.753891   8.323915
    16  H    6.389195   8.505495   8.690534   7.767266   9.401959
    17  H    4.770232   7.092927   7.113384   6.107640   8.056975
    18  H    5.554064   7.354597   7.652270   6.879682   8.181476
    19  C    5.428858   7.459785   7.655628   6.778558   8.354486
    20  H    4.831804   7.130478   7.140248   6.139376   8.096128
    21  H    6.436802   8.531945   8.710260   7.792828   9.429123
    22  H    5.629366   7.399801   7.677295   6.910915   8.230536
    23  C    2.885757   4.456924   4.851357   4.229667   5.327564
    24  H    3.349519   4.491967   5.031142   4.570862   5.265762
    25  H    3.229999   4.451904   4.975197   4.488096   5.239867
    26  H    2.478010   4.684286   4.770708   3.882482   5.668990
    27  N    3.901663   6.354442   5.363184   4.074240   7.375294
    28  H    3.888189   6.110085   5.104744   3.910747   7.089717
    29  C    4.664032   6.854203   5.702515   4.508536   7.813167
    30  H    5.040059   7.354018   6.265757   5.042170   8.332218
    31  C    6.024504   8.073228   6.860846   5.755419   8.985294
    32  C    4.322422   6.008125   4.746130   3.751672   6.867328
    33  H    6.061312   7.890726   6.661426   5.659297   8.751102
    34  H    6.775032   8.681034   7.415096   6.384841   9.547628
    35  H    6.506907   8.762529   7.620198   6.438863   9.719877
    36  O    3.631271   4.949758   3.642067   2.780022   5.763689
    37  O    5.405422   6.816398   5.532695   4.716816   7.580792
    38  H    3.035360   5.639577   4.755360   3.417544   6.691688
    39  H    6.056209   7.683893   6.423807   5.518667   8.486380
                    6          7          8          9         10
     6  H    0.000000
     7  O    4.376297   0.000000
     8  N    3.843646   2.293031   0.000000
     9  C    3.393854   3.500624   1.340652   0.000000
    10  N    4.537371   4.599727   2.307270   1.347233   0.000000
    11  H    5.421884   4.730823   2.528785   2.060503   1.008102
    12  H    4.711120   5.502629   3.229902   2.054822   1.008633
    13  H    2.337203   2.518169   3.284254   3.713555   5.060740
    14  S    8.261208   4.718233   4.456038   5.420213   5.340155
    15  C    8.651701   4.760177   5.066787   6.164768   6.297276
    16  H    9.699121   5.686456   6.123736   7.232429   7.331544
    17  H    8.078763   3.983829   4.730948   5.943758   6.309245
    18  H    8.662678   5.092311   5.128021   6.093464   6.124713
    19  C    8.666932   4.835988   5.115732   6.208521   6.341241
    20  H    8.101563   4.072865   4.787523   5.995127   6.359664
    21  H    9.716123   5.755048   6.165160   7.269445   7.366753
    22  H    8.680493   5.198165   5.203440   6.164405   6.201086
    23  C    5.925223   2.916628   2.103669   3.129383   3.340347
    24  H    6.097896   3.548992   2.400253   3.150799   3.134416
    25  H    6.043642   3.397698   2.306752   3.102118   3.131027
    26  H    5.792330   2.093717   2.266796   3.543051   4.088375
    27  N    5.721758   3.003220   5.179288   6.228623   7.439008
    28  H    5.409508   3.197752   5.129341   6.075741   7.289804
    29  C    5.840902   3.922450   6.026036   6.950525   8.232954
    30  H    6.465345   4.183525   6.355573   7.348370   8.590437
    31  C    6.858624   5.315524   7.382542   8.263798   9.557215
    32  C    4.682659   3.960872   5.690543   6.375403   7.708782
    33  H    6.581509   5.494241   7.393363   8.178475   9.473958
    34  H    7.297395   6.124378   8.152618   8.973439  10.290532
    35  H    7.721328   5.648003   7.818982   8.807989  10.054821
    36  O    3.514997   3.593817   4.947733   5.463151   6.810153
    37  O    5.292458   5.116590   6.731110   7.312661   8.638245
    38  H    5.255742   2.044656   4.288041   5.394837   6.577931
    39  H    6.242015   5.599900   7.398500   8.083417   9.398322
                   11         12         13         14         15
    11  H    0.000000
    12  H    1.725340   0.000000
    13  H    5.646059   5.649055   0.000000
    14  S    4.557665   6.255903   7.082538   0.000000
    15  C    5.614000   7.237503   7.197668   1.830679   0.000000
    16  H    6.607742   8.263593   8.161145   2.426261   1.092687
    17  H    5.770221   7.286199   6.431203   2.448674   1.092817
    18  H    5.423021   7.004303   7.379379   2.394802   1.095565
    19  C    5.694993   7.284567   7.233200   1.824663   2.815248
    20  H    5.853921   7.340041   6.474028   2.438554   2.972361
    21  H    6.672567   8.301747   8.197858   2.415891   3.007110
    22  H    5.564772   7.087221   7.425950   2.392701   3.779210
    23  C    2.839431   4.337027   4.959761   2.353670   3.222829
    24  H    2.578769   4.070798   5.366464   2.599701   3.935617
    25  H    2.546432   4.073894   5.263660   2.631598   3.187071
    26  H    3.766098   5.096430   4.430424   2.658585   3.105386
    27  N    7.658290   8.271672   3.433057   6.937104   6.685969
    28  H    7.571814   8.077037   3.289067   7.167447   7.168017
    29  C    8.550603   8.998009   3.642232   8.125370   7.692300
    30  H    8.835946   9.388298   4.243777   8.094151   7.418400
    31  C    9.904434  10.295504   4.835680   9.383483   8.996101
    32  C    8.179196   8.356223   2.758950   8.560912   8.220504
    33  H    9.881204  10.163162   4.746608   9.646107   9.458952
    34  H   10.680748  10.991606   5.407167  10.286189   9.793070
    35  H   10.310801  10.850511   5.595447   9.308764   8.870023
    36  O    7.373643   7.388123   1.750573   8.310496   8.197652
    37  O    9.152885   9.219929   3.735835   9.667208   9.182294
    38  H    6.758852   7.438139   2.941317   6.111482   5.851375
    39  H    9.850505  10.028213   4.549241   9.981814   9.363230
                   16         17         18         19         20
    16  H    0.000000
    17  H    1.792407   0.000000
    18  H    1.778181   1.791083   0.000000
    19  C    3.009511   2.990572   3.779090   0.000000
    20  H    3.281463   2.732686   3.983199   1.094522   0.000000
    21  H    2.790006   3.303479   4.013560   1.094048   1.794502
    22  H    4.018314   3.995062   4.648796   1.090348   1.792025
    23  C    4.225357   3.155441   3.445462   3.227597   3.162739
    24  H    4.830394   4.001863   4.236946   3.228774   3.335491
    25  H    4.246761   3.252584   3.050471   3.952695   3.988764
    26  H    4.073979   2.687269   3.521202   3.078364   2.656940
    27  N    7.317106   5.680495   7.249255   6.393123   5.340742
    28  H    7.830351   6.230935   7.767710   6.526785   5.503371
    29  C    8.332801   6.644970   8.136136   7.726616   6.681798
    30  H    7.998849   6.339897   7.809807   7.786237   6.751644
    31  C    9.554753   7.943850   9.523728   8.771376   7.693761
    32  C    8.997286   7.228508   8.509130   8.413667   7.441992
    33  H   10.058776   8.446989  10.017503   8.967601   7.908446
    34  H   10.352252   8.723188  10.254530   9.757119   8.682010
    35  H    9.317548   7.816326   9.485279   8.537402   7.444061
    36  O    9.063092   7.288764   8.452117   8.247335   7.345587
    37  O    9.947441   8.178649   9.379292   9.617401   8.651448
    38  H    6.562632   4.863459   6.348451   5.764423   4.759726
    39  H   10.048253   8.320384   9.595160   9.853281   8.852430
                   21         22         23         24         25
    21  H    0.000000
    22  H    1.775993   0.000000
    23  C    4.228225   3.451439   0.000000
    24  H    4.277200   3.098202   1.079862   0.000000
    25  H    4.841007   4.282220   1.080551   1.873440   0.000000
    26  H    4.055983   3.475213   1.083338   1.883250   1.856669
    27  N    7.062436   6.783453   5.678378   6.182206   6.290310
    28  H    7.262426   6.754813   5.780424   6.118642   6.489450
    29  C    8.373835   8.174229   6.769009   7.357618   7.236241
    30  H    8.347931   8.365011   6.916054   7.627738   7.280561
    31  C    9.355770   9.154696   8.114640   8.612580   8.667188
    32  C    9.181031   8.801348   6.866828   7.444173   7.207566
    33  H    9.612450   9.225010   8.258151   8.633987   8.881479
    34  H   10.329005  10.181511   8.979916   9.529733   9.454844
    35  H    9.015330   8.950220   8.288984   8.780801   8.898285
    36  O    9.115104   8.518674   6.393336   6.863669   6.740459
    37  O   10.355489  10.059729   7.975606   8.614283   8.201215
    38  H    6.494542   6.201178   4.762629   5.345796   5.314611
    39  H   10.511639  10.359272   8.461056   9.144625   8.700162
                   26         27         28         29         30
    26  H    0.000000
    27  N    4.671764   0.000000
    28  H    4.847795   1.028651   0.000000
    29  C    5.792012   1.451948   2.048134   0.000000
    30  H    5.914857   2.066283   2.934857   1.099835   0.000000
    31  C    7.123245   2.472349   2.672913   1.551187   2.164645
    32  C    6.027832   2.509166   2.767972   1.538463   2.137972
    33  H    7.318437   2.776402   2.546966   2.196895   3.085905
    34  H    7.999720   3.438028   3.704695   2.221660   2.526546
    35  H    7.251417   2.658986   2.941595   2.157069   2.487043
    36  O    5.678119   2.909825   2.841337   2.474914   3.204540
    37  O    7.165331   3.717213   4.051643   2.455659   2.657720
    38  H    3.763297   1.015423   1.644516   2.054734   2.400990
    39  H    7.583256   3.834939   4.306567   2.418112   2.343333
                   31         32         33         34         35
    31  C    0.000000
    32  C    2.516633   0.000000
    33  H    1.100114   2.785537   0.000000
    34  H    1.098318   2.783847   1.774630   0.000000
    35  H    1.091561   3.455167   1.774773   1.784635   0.000000
    36  O    3.418453   1.219719   3.353610   3.807819   4.349221
    37  O    3.020222   1.345117   3.407967   2.763603   4.003821
    38  H    3.372560   2.706785   3.698814   4.240416   3.614894
    39  H    2.724519   1.919226   3.353202   2.227546   3.586818
                   36         37         38         39
    36  O    0.000000
    37  O    2.173189   0.000000
    38  H    2.892823   3.932039   0.000000
    39  H    2.994201   0.979324   4.172246   0.000000
 Symmetry turned off by external request.
 Stoichiometry    C10H21N4O3S(1+)
 Framework group  C1[X(C10H21N4O3S)]
 Deg. of freedom   111
 Full point group                 C1      NOp   1
 Rotational constants (GHZ):      0.3771418      0.1691647      0.1238028
 Standard basis: 6-31G(d) (6D, 7F)
   316 basis functions,   612 primitive gaussians,   316 cartesian basis functions
    74 alpha electrons       74 beta electrons
       nuclear repulsion energy      1457.6655084399 Hartrees.
 NAtoms=   39 NActive=   39 NUniq=   39 SFac= 1.00D+00 NAtFMM=   60 NAOKFM=F Big=F
 Integral buffers will be    131072 words long.
 Raffenetti 2 integral format.
 Two-electron integral symmetry is turned off.
 One-electron integrals computed using PRISM.
 NBasis=   316 RedAO= T EigKep=  1.12D-03  NBF=   316
 NBsUse=   316 1.00D-06 EigRej= -1.00D+00 NBFU=   316
 ExpMin= 1.17D-01 ExpMax= 2.19D+04 ExpMxC= 3.30D+03 IAcc=1 IRadAn=         1 AccDes= 0.00D+00
 Harris functional with IExCor=  402 and IRadAn=       1 diagonalized for initial guess.
 HarFok:  IExCor=  402 AccDes= 0.00D+00 IRadAn=         1 IDoV= 1 UseB2=F ITyADJ=14
 ICtDFT=  3500011 ScaDFX=  1.000000  1.000000  1.000000  1.000000
 FoFCou: FMM=F IPFlag=           0 FMFlag=      100000 FMFlg1=           0
         NFxFlg=           0 DoJE=T BraDBF=F KetDBF=T FulRan=T
         wScrn=  0.000000 ICntrl=     500 IOpCl=  0 I1Cent=   200000004 NGrid=           0
         NMat0=    1 NMatS0=      1 NMatT0=    0 NMatD0=    1 NMtDS0=    0 NMtDT0=    0
 Symmetry not used in FoFCou.
 Keep R1 ints in memory in canonical form, NReq=1270586293.
 Requested convergence on RMS density matrix=1.00D-08 within 128 cycles.
 Requested convergence on MAX density matrix=1.00D-06.
 Requested convergence on             energy=1.00D-06.
 No special actions if energy rises.
 Integral accuracy reduced to 1.0D-05 until final iterations.
 Initial convergence to 1.0D-05 achieved.  Increase integral accuracy.
 SCF Done:  E(RB3LYP) =  -1236.35603774     A.U. after   15 cycles
            NFock= 15  Conv=0.58D-08     -V/T= 2.0075
 DoSCS=F DFT=T ScalE2(SS,OS)=  1.000000  1.000000
 Range of M.O.s used for correlation:     1   316
 NBasis=   316 NAE=    74 NBE=    74 NFC=     0 NFV=     0
 NROrb=    316 NOA=    74 NOB=    74 NVA=   242 NVB=   242
 Symmetrizing basis deriv contribution to polar:
 IMax=3 JMax=2 DiffMx= 0.00D+00
 G2DrvN: will do    40 centers at a time, making    1 passes.
 Calling FoFCou, ICntrl=  3107 FMM=F I1Cent=   0 AccDes= 0.00D+00.
 End of G2Drv F.D. properties file   721 does not exist.
 End of G2Drv F.D. properties file   722 does not exist.
 End of G2Drv F.D. properties file   788 does not exist.
          IDoAtm=111111111111111111111111111111111111111
          Differentiating once with respect to electric field.
                with respect to dipole field.
          Differentiating once with respect to nuclear coordinates.
 Keep R1 ints in memory in canonical form, NReq=1270267955.
          There are   120 degrees of freedom in the 1st order CPHF.  IDoFFX=6 NUNeed=     3.
    117 vectors produced by pass  0 Test12= 1.79D-14 1.00D-09 XBig12= 2.33D+02 8.46D+00.
 AX will form   117 AO Fock derivatives at one time.
    117 vectors produced by pass  1 Test12= 1.79D-14 1.00D-09 XBig12= 3.37D+01 8.66D-01.
    117 vectors produced by pass  2 Test12= 1.79D-14 1.00D-09 XBig12= 4.00D-01 6.20D-02.
    117 vectors produced by pass  3 Test12= 1.79D-14 1.00D-09 XBig12= 1.30D-03 5.09D-03.
    117 vectors produced by pass  4 Test12= 1.79D-14 1.00D-09 XBig12= 1.48D-06 1.26D-04.
     83 vectors produced by pass  5 Test12= 1.79D-14 1.00D-09 XBig12= 1.20D-09 3.05D-06.
     10 vectors produced by pass  6 Test12= 1.79D-14 1.00D-09 XBig12= 9.35D-13 9.27D-08.
      2 vectors produced by pass  7 Test12= 1.79D-14 1.00D-09 XBig12= 7.45D-16 3.12D-09.
 InvSVY:  IOpt=1 It=  1 EMax= 1.95D-14
 Solved reduced A of dimension   680 with   120 vectors.
 Isotropic polarizability for W=    0.000000      179.98 Bohr**3.
 End of Minotr F.D. properties file   721 does not exist.
 End of Minotr F.D. properties file   722 does not exist.
 End of Minotr F.D. properties file   788 does not exist.

 **********************************************************************

            Population analysis using the SCF density.

 **********************************************************************

 Alpha  occ. eigenvalues --  -89.04115 -19.28787 -19.23770 -19.23573 -14.50169
 Alpha  occ. eigenvalues --  -14.50013 -14.47543 -14.39058 -10.44134 -10.42294
 Alpha  occ. eigenvalues --  -10.41259 -10.38419 -10.37673 -10.34375 -10.34297
 Alpha  occ. eigenvalues --  -10.32275 -10.31959 -10.27356  -8.10186  -6.06585
 Alpha  occ. eigenvalues --   -6.06262  -6.05830  -1.19681  -1.17125  -1.10951
 Alpha  occ. eigenvalues --   -1.10621  -1.07311  -1.01050  -0.96999  -0.94861
 Alpha  occ. eigenvalues --   -0.90648  -0.84606  -0.84063  -0.83108  -0.79301
 Alpha  occ. eigenvalues --   -0.78269  -0.74080  -0.73956  -0.70211  -0.69832
 Alpha  occ. eigenvalues --   -0.67824  -0.66179  -0.62607  -0.61520  -0.59529
 Alpha  occ. eigenvalues --   -0.58997  -0.58476  -0.57847  -0.57492  -0.57221
 Alpha  occ. eigenvalues --   -0.56748  -0.55794  -0.55741  -0.54869  -0.54092
 Alpha  occ. eigenvalues --   -0.53580  -0.52939  -0.51336  -0.51030  -0.50499
 Alpha  occ. eigenvalues --   -0.49012  -0.48265  -0.46977  -0.46815  -0.46219
 Alpha  occ. eigenvalues --   -0.44638  -0.44334  -0.41082  -0.39658  -0.38991
 Alpha  occ. eigenvalues --   -0.37577  -0.37192  -0.35635  -0.31840
 Alpha virt. eigenvalues --   -0.15636  -0.15060  -0.10910  -0.10095  -0.09189
 Alpha virt. eigenvalues --   -0.07348  -0.05378  -0.03538  -0.03401  -0.01913
 Alpha virt. eigenvalues --   -0.00100   0.00893   0.01137   0.01410   0.01929
 Alpha virt. eigenvalues --    0.01951   0.02838   0.03880   0.04404   0.04882
 Alpha virt. eigenvalues --    0.05132   0.06689   0.07155   0.07523   0.08446
 Alpha virt. eigenvalues --    0.09441   0.10095   0.11119   0.12176   0.13567
 Alpha virt. eigenvalues --    0.15443   0.15771   0.16766   0.18549   0.19882
 Alpha virt. eigenvalues --    0.21171   0.23184   0.24777   0.25383   0.25781
 Alpha virt. eigenvalues --    0.26332   0.28105   0.30299   0.31316   0.32353
 Alpha virt. eigenvalues --    0.34175   0.36976   0.37611   0.39393   0.42494
 Alpha virt. eigenvalues --    0.43040   0.43600   0.43855   0.44221   0.45244
 Alpha virt. eigenvalues --    0.45565   0.46248   0.46576   0.47321   0.48398
 Alpha virt. eigenvalues --    0.49433   0.49643   0.50629   0.51499   0.52350
 Alpha virt. eigenvalues --    0.52891   0.53988   0.54768   0.55019   0.57422
 Alpha virt. eigenvalues --    0.59992   0.61000   0.62571   0.63091   0.64377
 Alpha virt. eigenvalues --    0.65047   0.65500   0.67247   0.67269   0.69149
 Alpha virt. eigenvalues --    0.69544   0.70161   0.71531   0.72609   0.72794
 Alpha virt. eigenvalues --    0.72992   0.73477   0.74280   0.75257   0.75369
 Alpha virt. eigenvalues --    0.75762   0.76495   0.77157   0.77470   0.78266
 Alpha virt. eigenvalues --    0.79231   0.79523   0.79757   0.81364   0.81649
 Alpha virt. eigenvalues --    0.83079   0.83473   0.83950   0.84628   0.85367
 Alpha virt. eigenvalues --    0.85978   0.86471   0.87266   0.88793   0.89402
 Alpha virt. eigenvalues --    0.90678   0.92524   0.93484   0.95663   0.96317
 Alpha virt. eigenvalues --    0.98285   1.00926   1.01993   1.02672   1.05875
 Alpha virt. eigenvalues --    1.07620   1.09107   1.13219   1.14843   1.18210
 Alpha virt. eigenvalues --    1.18439   1.18842   1.20100   1.20988   1.23244
 Alpha virt. eigenvalues --    1.24101   1.26210   1.28989   1.29416   1.30759
 Alpha virt. eigenvalues --    1.32557   1.32657   1.34829   1.35444   1.37545
 Alpha virt. eigenvalues --    1.39413   1.41754   1.45256   1.50218   1.51942
 Alpha virt. eigenvalues --    1.53398   1.54348   1.54612   1.55655   1.56998
 Alpha virt. eigenvalues --    1.58528   1.58887   1.60853   1.61367   1.62786
 Alpha virt. eigenvalues --    1.64425   1.65116   1.66294   1.67116   1.69118
 Alpha virt. eigenvalues --    1.70137   1.73498   1.74568   1.76381   1.77353
 Alpha virt. eigenvalues --    1.78416   1.79843   1.82485   1.82925   1.85060
 Alpha virt. eigenvalues --    1.87389   1.88520   1.90727   1.92235   1.96981
 Alpha virt. eigenvalues --    1.97320   1.99821   2.00293   2.02317   2.02462
 Alpha virt. eigenvalues --    2.05849   2.06061   2.06378   2.06818   2.07338
 Alpha virt. eigenvalues --    2.08080   2.09984   2.10901   2.11266   2.11520
 Alpha virt. eigenvalues --    2.13630   2.14558   2.16941   2.17990   2.19897
 Alpha virt. eigenvalues --    2.20996   2.24081   2.27045   2.27645   2.29168
 Alpha virt. eigenvalues --    2.30616   2.32537   2.39781   2.41975   2.43059
 Alpha virt. eigenvalues --    2.48500   2.51776   2.52064   2.52743   2.54298
 Alpha virt. eigenvalues --    2.55508   2.57054   2.58328   2.64030   2.67340
 Alpha virt. eigenvalues --    2.70917   2.73685   2.77968   2.89442   2.90777
 Alpha virt. eigenvalues --    2.95603   2.97620   3.10490   3.29431   3.68617
 Alpha virt. eigenvalues --    3.70288   3.75941   3.86822   3.91694   3.92672
 Alpha virt. eigenvalues --    4.01863   4.03782   4.05677   4.06810   4.11703
 Alpha virt. eigenvalues --    4.14954   4.16701   4.19229   4.20930   4.41229
 Alpha virt. eigenvalues --    4.47103   4.49936
          Condensed to atoms (all electrons):
               1          2          3          4          5          6
     1  C    4.169965  -0.020336  -0.033764   0.297142   0.000600   0.002457
     2  C   -0.020336   5.029792   0.569543  -0.027075   0.361916  -0.033184
     3  C   -0.033764   0.569543   4.682674   0.353674  -0.031761   0.370159
     4  N    0.297142  -0.027075   0.353674   7.085943   0.003425  -0.040064
     5  H    0.000600   0.361916  -0.031761   0.003425   0.517169  -0.003033
     6  H    0.002457  -0.033184   0.370159  -0.040064  -0.003033   0.484323
     7  O    0.529182   0.000707   0.001850  -0.080571   0.000005  -0.000085
     8  N    0.320370  -0.048889  -0.018368  -0.099829   0.003639  -0.000216
     9  C   -0.026219   0.472885  -0.019983  -0.022372  -0.030107   0.002931
    10  N    0.001441  -0.079013   0.003835   0.000216  -0.004997  -0.000121
    11  H    0.000044   0.005115  -0.000141   0.000012  -0.000062   0.000003
    12  H   -0.000055  -0.003094   0.000138   0.000023   0.003363  -0.000002
    13  H   -0.007446   0.002311  -0.015651   0.213768  -0.000081  -0.003792
    14  S    0.000099   0.000006   0.000000   0.000008  -0.000000   0.000000
    15  C   -0.000005  -0.000000  -0.000000  -0.000000   0.000000  -0.000000
    16  H    0.000000   0.000000   0.000000   0.000000  -0.000000   0.000000
    17  H   -0.000004  -0.000000  -0.000000  -0.000000   0.000000  -0.000000
    18  H    0.000000  -0.000000  -0.000000  -0.000000   0.000000  -0.000000
    19  C   -0.000005  -0.000000  -0.000000  -0.000000   0.000000  -0.000000
    20  H   -0.000008  -0.000000  -0.000000  -0.000000   0.000000  -0.000000
    21  H    0.000000   0.000000   0.000000   0.000000  -0.000000   0.000000
    22  H    0.000000  -0.000000  -0.000000  -0.000000   0.000000  -0.000000
    23  C   -0.014330   0.000933   0.000038   0.000211  -0.000012   0.000001
    24  H    0.000839  -0.000078  -0.000009   0.000001   0.000001   0.000000
    25  H    0.000419  -0.000085  -0.000011  -0.000020   0.000002  -0.000000
    26  H    0.000328  -0.000077  -0.000058   0.000724   0.000001   0.000001
    27  N    0.000971  -0.000000  -0.000004  -0.000118   0.000000  -0.000000
    28  H    0.000287  -0.000000  -0.000001  -0.000047  -0.000000  -0.000000
    29  C   -0.000199   0.000000   0.000001   0.000002  -0.000000   0.000001
    30  H    0.000014  -0.000000  -0.000000   0.000005  -0.000000  -0.000000
    31  C    0.000001  -0.000000   0.000000  -0.000002   0.000000  -0.000000
    32  C    0.000427  -0.000001   0.000009   0.001356   0.000000  -0.000011
    33  H    0.000000  -0.000000  -0.000000   0.000000  -0.000000  -0.000000
    34  H    0.000000  -0.000000   0.000000  -0.000000  -0.000000  -0.000000
    35  H   -0.000000   0.000000   0.000000   0.000000   0.000000   0.000000
    36  O    0.000207  -0.000002   0.000490  -0.032759   0.000000   0.000368
    37  O    0.000001  -0.000000  -0.000000  -0.000025   0.000000  -0.000000
    38  H    0.000105  -0.000003   0.000011  -0.000660  -0.000000  -0.000000
    39  H   -0.000000   0.000000  -0.000000   0.000003  -0.000000  -0.000000
               7          8          9         10         11         12
     1  C    0.529182   0.320370  -0.026219   0.001441   0.000044  -0.000055
     2  C    0.000707  -0.048889   0.472885  -0.079013   0.005115  -0.003094
     3  C    0.001850  -0.018368  -0.019983   0.003835  -0.000141   0.000138
     4  N   -0.080571  -0.099829  -0.022372   0.000216   0.000012   0.000023
     5  H    0.000005   0.003639  -0.030107  -0.004997  -0.000062   0.003363
     6  H   -0.000085  -0.000216   0.002931  -0.000121   0.000003  -0.000002
     7  O    8.121807  -0.080136   0.000401  -0.000058  -0.000002   0.000001
     8  N   -0.080136   7.211248   0.414137  -0.081322  -0.002212   0.003617
     9  C    0.000401   0.414137   4.284223   0.341466  -0.013628  -0.017891
    10  N   -0.000058  -0.081322   0.341466   6.965684   0.309951   0.320133
    11  H   -0.000002  -0.002212  -0.013628   0.309951   0.355886  -0.021497
    12  H    0.000001   0.003617  -0.017891   0.320133  -0.021497   0.339909
    13  H    0.004145   0.003236   0.000514   0.000011  -0.000000  -0.000000
    14  S    0.000151   0.007790  -0.000003  -0.000059   0.000179   0.000001
    15  C   -0.000015  -0.000056  -0.000001   0.000000  -0.000000  -0.000000
    16  H    0.000000   0.000001   0.000000  -0.000000   0.000000   0.000000
    17  H    0.000037  -0.000060   0.000000   0.000000  -0.000000  -0.000000
    18  H    0.000000  -0.000006  -0.000000   0.000000  -0.000000   0.000000
    19  C   -0.000006  -0.000049  -0.000000   0.000000  -0.000000  -0.000000
    20  H   -0.000010  -0.000050   0.000000   0.000000  -0.000000  -0.000000
    21  H    0.000000   0.000001   0.000000  -0.000000   0.000000   0.000000
    22  H    0.000000  -0.000005  -0.000000   0.000000  -0.000000   0.000000
    23  C   -0.023357   0.057680  -0.003340  -0.003818   0.004084   0.000029
    24  H    0.000416  -0.017441  -0.000209   0.001272   0.000393   0.000004
    25  H    0.000293  -0.021222  -0.000203   0.000992   0.000729  -0.000001
    26  H    0.042085  -0.030292   0.001229   0.000129  -0.000087   0.000000
    27  N   -0.013298  -0.000011   0.000000  -0.000000   0.000000   0.000000
    28  H    0.000704   0.000003   0.000000   0.000000   0.000000  -0.000000
    29  C   -0.000080  -0.000001  -0.000000  -0.000000  -0.000000   0.000000
    30  H   -0.000015   0.000000   0.000000   0.000000   0.000000   0.000000
    31  C   -0.000005  -0.000000   0.000000  -0.000000   0.000000   0.000000
    32  C    0.000539   0.000004   0.000000   0.000000   0.000000  -0.000000
    33  H   -0.000000   0.000000   0.000000   0.000000  -0.000000   0.000000
    34  H    0.000000   0.000000  -0.000000   0.000000   0.000000  -0.000000
    35  H    0.000000  -0.000000  -0.000000  -0.000000  -0.000000  -0.000000
    36  O   -0.000472  -0.000002  -0.000001  -0.000000   0.000000   0.000000
    37  O    0.000000   0.000000   0.000000   0.000000   0.000000   0.000000
    38  H    0.035306   0.000244  -0.000002   0.000000   0.000000  -0.000000
    39  H    0.000000   0.000000  -0.000000  -0.000000  -0.000000  -0.000000
              13         14         15         16         17         18
     1  C   -0.007446   0.000099  -0.000005   0.000000  -0.000004   0.000000
     2  C    0.002311   0.000006  -0.000000   0.000000  -0.000000  -0.000000
     3  C   -0.015651   0.000000  -0.000000   0.000000  -0.000000  -0.000000
     4  N    0.213768   0.000008  -0.000000   0.000000  -0.000000  -0.000000
     5  H   -0.000081  -0.000000   0.000000  -0.000000   0.000000   0.000000
     6  H   -0.003792   0.000000  -0.000000   0.000000  -0.000000  -0.000000
     7  O    0.004145   0.000151  -0.000015   0.000000   0.000037   0.000000
     8  N    0.003236   0.007790  -0.000056   0.000001  -0.000060  -0.000006
     9  C    0.000514  -0.000003  -0.000001   0.000000   0.000000  -0.000000
    10  N    0.000011  -0.000059   0.000000  -0.000000   0.000000   0.000000
    11  H   -0.000000   0.000179  -0.000000   0.000000  -0.000000  -0.000000
    12  H   -0.000000   0.000001  -0.000000   0.000000  -0.000000   0.000000
    13  H    0.296512  -0.000000   0.000000  -0.000000   0.000000   0.000000
    14  S   -0.000000  15.458488   0.245613  -0.032937  -0.042927  -0.031940
    15  C    0.000000   0.245613   5.282643   0.371223   0.368513   0.370542
    16  H   -0.000000  -0.032937   0.371223   0.481064  -0.025903  -0.020007
    17  H    0.000000  -0.042927   0.368513  -0.025903   0.503823  -0.021200
    18  H    0.000000  -0.031940   0.370542  -0.020007  -0.021200   0.483058
    19  C    0.000000   0.243590  -0.028435  -0.002482  -0.002599   0.002381
    20  H    0.000000  -0.043961  -0.002752  -0.000658   0.004641   0.000005
    21  H   -0.000000  -0.033522  -0.002595   0.003348  -0.000636  -0.000011
    22  H    0.000000  -0.031881   0.002394  -0.000012   0.000003  -0.000056
    23  C   -0.000005   0.091712  -0.010140   0.000618  -0.002042  -0.000188
    24  H    0.000000  -0.030392   0.000804  -0.000025   0.000106   0.000008
    25  H    0.000001  -0.029119   0.000858  -0.000043   0.000192   0.000774
    26  H   -0.000006  -0.028877   0.000030  -0.000078   0.003337  -0.000052
    27  N    0.001201  -0.000000  -0.000000   0.000000  -0.000000   0.000000
    28  H    0.000352   0.000000   0.000000  -0.000000  -0.000000  -0.000000
    29  C   -0.000377  -0.000000   0.000000  -0.000000  -0.000000  -0.000000
    30  H   -0.000030  -0.000000  -0.000000  -0.000000   0.000000   0.000000
    31  C    0.000026   0.000000  -0.000000   0.000000   0.000000   0.000000
    32  C   -0.003894   0.000000  -0.000000   0.000000  -0.000000  -0.000000
    33  H   -0.000004  -0.000000  -0.000000  -0.000000   0.000000   0.000000
    34  H    0.000000   0.000000   0.000000  -0.000000  -0.000000  -0.000000
    35  H   -0.000000  -0.000000   0.000000  -0.000000   0.000000  -0.000000
    36  O    0.077694   0.000000  -0.000000   0.000000  -0.000000  -0.000000
    37  O    0.000498   0.000000  -0.000000  -0.000000   0.000000   0.000000
    38  H    0.001081   0.000000  -0.000000  -0.000000   0.000001  -0.000000
    39  H   -0.000041  -0.000000   0.000000  -0.000000   0.000000   0.000000
              19         20         21         22         23         24
     1  C   -0.000005  -0.000008   0.000000   0.000000  -0.014330   0.000839
     2  C   -0.000000  -0.000000   0.000000  -0.000000   0.000933  -0.000078
     3  C   -0.000000  -0.000000   0.000000  -0.000000   0.000038  -0.000009
     4  N   -0.000000  -0.000000   0.000000  -0.000000   0.000211   0.000001
     5  H    0.000000   0.000000  -0.000000   0.000000  -0.000012   0.000001
     6  H   -0.000000  -0.000000   0.000000  -0.000000   0.000001   0.000000
     7  O   -0.000006  -0.000010   0.000000   0.000000  -0.023357   0.000416
     8  N   -0.000049  -0.000050   0.000001  -0.000005   0.057680  -0.017441
     9  C   -0.000000   0.000000   0.000000  -0.000000  -0.003340  -0.000209
    10  N    0.000000   0.000000  -0.000000   0.000000  -0.003818   0.001272
    11  H   -0.000000  -0.000000   0.000000  -0.000000   0.004084   0.000393
    12  H   -0.000000  -0.000000   0.000000   0.000000   0.000029   0.000004
    13  H    0.000000   0.000000  -0.000000   0.000000  -0.000005   0.000000
    14  S    0.243590  -0.043961  -0.033522  -0.031881   0.091712  -0.030392
    15  C   -0.028435  -0.002752  -0.002595   0.002394  -0.010140   0.000804
    16  H   -0.002482  -0.000658   0.003348  -0.000012   0.000618  -0.000025
    17  H   -0.002599   0.004641  -0.000636   0.000003  -0.002042   0.000106
    18  H    0.002381   0.000005  -0.000011  -0.000056  -0.000188   0.000008
    19  C    5.283959   0.368750   0.371185   0.371471  -0.010207   0.000875
    20  H    0.368750   0.503628  -0.025734  -0.020693  -0.001995   0.000160
    21  H    0.371185  -0.025734   0.481828  -0.020049   0.000614  -0.000047
    22  H    0.371471  -0.020693  -0.020049   0.479645  -0.000159   0.000654
    23  C   -0.010207  -0.001995   0.000614  -0.000159   5.233363   0.374948
    24  H    0.000875   0.000160  -0.000047   0.000654   0.374948   0.478240
    25  H    0.000794   0.000102  -0.000025   0.000007   0.378486  -0.023894
    26  H    0.000226   0.003625  -0.000081  -0.000058   0.346727  -0.014051
    27  N   -0.000000   0.000000   0.000000   0.000000  -0.000002   0.000000
    28  H    0.000000   0.000000   0.000000  -0.000000   0.000000  -0.000000
    29  C    0.000000   0.000000  -0.000000   0.000000  -0.000000   0.000000
    30  H    0.000000  -0.000000  -0.000000   0.000000  -0.000000   0.000000
    31  C   -0.000000  -0.000000   0.000000   0.000000   0.000000   0.000000
    32  C   -0.000000  -0.000000   0.000000  -0.000000   0.000000  -0.000000
    33  H    0.000000   0.000000  -0.000000   0.000000  -0.000000   0.000000
    34  H    0.000000  -0.000000   0.000000  -0.000000   0.000000  -0.000000
    35  H   -0.000000   0.000000  -0.000000  -0.000000   0.000000  -0.000000
    36  O   -0.000000  -0.000000   0.000000  -0.000000   0.000000  -0.000000
    37  O    0.000000  -0.000000   0.000000  -0.000000   0.000000  -0.000000
    38  H   -0.000000   0.000002  -0.000000  -0.000000   0.000022  -0.000000
    39  H    0.000000   0.000000  -0.000000   0.000000  -0.000000   0.000000
              25         26         27         28         29         30
     1  C    0.000419   0.000328   0.000971   0.000287  -0.000199   0.000014
     2  C   -0.000085  -0.000077  -0.000000  -0.000000   0.000000  -0.000000
     3  C   -0.000011  -0.000058  -0.000004  -0.000001   0.000001  -0.000000
     4  N   -0.000020   0.000724  -0.000118  -0.000047   0.000002   0.000005
     5  H    0.000002   0.000001   0.000000  -0.000000  -0.000000  -0.000000
     6  H   -0.000000   0.000001  -0.000000  -0.000000   0.000001  -0.000000
     7  O    0.000293   0.042085  -0.013298   0.000704  -0.000080  -0.000015
     8  N   -0.021222  -0.030292  -0.000011   0.000003  -0.000001   0.000000
     9  C   -0.000203   0.001229   0.000000   0.000000  -0.000000   0.000000
    10  N    0.000992   0.000129  -0.000000   0.000000  -0.000000   0.000000
    11  H    0.000729  -0.000087   0.000000   0.000000  -0.000000   0.000000
    12  H   -0.000001   0.000000   0.000000  -0.000000   0.000000   0.000000
    13  H    0.000001  -0.000006   0.001201   0.000352  -0.000377  -0.000030
    14  S   -0.029119  -0.028877  -0.000000   0.000000  -0.000000  -0.000000
    15  C    0.000858   0.000030  -0.000000   0.000000   0.000000  -0.000000
    16  H   -0.000043  -0.000078   0.000000  -0.000000  -0.000000  -0.000000
    17  H    0.000192   0.003337  -0.000000  -0.000000  -0.000000   0.000000
    18  H    0.000774  -0.000052   0.000000  -0.000000  -0.000000   0.000000
    19  C    0.000794   0.000226  -0.000000   0.000000   0.000000   0.000000
    20  H    0.000102   0.003625   0.000000   0.000000   0.000000  -0.000000
    21  H   -0.000025  -0.000081   0.000000   0.000000  -0.000000  -0.000000
    22  H    0.000007  -0.000058   0.000000  -0.000000   0.000000   0.000000
    23  C    0.378486   0.346727  -0.000002   0.000000  -0.000000  -0.000000
    24  H   -0.023894  -0.014051   0.000000  -0.000000   0.000000   0.000000
    25  H    0.479656  -0.015959   0.000000  -0.000000   0.000000   0.000000
    26  H   -0.015959   0.420704   0.000011  -0.000001   0.000000   0.000000
    27  N    0.000000   0.000011   6.922325   0.315590   0.336705  -0.040564
    28  H   -0.000000  -0.000001   0.315590   0.452947  -0.044642   0.007107
    29  C    0.000000   0.000000   0.336705  -0.044642   5.082408   0.362004
    30  H    0.000000   0.000000  -0.040564   0.007107   0.362004   0.595516
    31  C   -0.000000  -0.000000  -0.051392  -0.005599   0.345735  -0.035111
    32  C   -0.000000  -0.000000  -0.050768  -0.003940   0.289709  -0.051925
    33  H    0.000000   0.000000  -0.003251   0.005279  -0.032651   0.005166
    34  H   -0.000000  -0.000000   0.003848  -0.000100  -0.032042  -0.003046
    35  H   -0.000000  -0.000000   0.002512  -0.000803  -0.026457  -0.006109
    36  O   -0.000000   0.000000  -0.003152   0.004845  -0.072495   0.001878
    37  O    0.000000   0.000000   0.003445   0.000121  -0.080621   0.003902
    38  H   -0.000001  -0.000027   0.301204  -0.030485  -0.036946  -0.003226
    39  H    0.000000  -0.000000   0.000306  -0.000001   0.007105   0.001573
              31         32         33         34         35         36
     1  C    0.000001   0.000427   0.000000   0.000000  -0.000000   0.000207
     2  C   -0.000000  -0.000001  -0.000000  -0.000000   0.000000  -0.000002
     3  C    0.000000   0.000009  -0.000000   0.000000   0.000000   0.000490
     4  N   -0.000002   0.001356   0.000000  -0.000000   0.000000  -0.032759
     5  H    0.000000   0.000000  -0.000000  -0.000000   0.000000   0.000000
     6  H   -0.000000  -0.000011  -0.000000  -0.000000   0.000000   0.000368
     7  O   -0.000005   0.000539  -0.000000   0.000000   0.000000  -0.000472
     8  N   -0.000000   0.000004   0.000000   0.000000  -0.000000  -0.000002
     9  C    0.000000   0.000000   0.000000  -0.000000  -0.000000  -0.000001
    10  N   -0.000000   0.000000   0.000000   0.000000  -0.000000  -0.000000
    11  H    0.000000   0.000000  -0.000000   0.000000  -0.000000   0.000000
    12  H    0.000000  -0.000000   0.000000  -0.000000  -0.000000   0.000000
    13  H    0.000026  -0.003894  -0.000004   0.000000  -0.000000   0.077694
    14  S    0.000000   0.000000  -0.000000   0.000000  -0.000000   0.000000
    15  C   -0.000000  -0.000000  -0.000000   0.000000   0.000000  -0.000000
    16  H    0.000000   0.000000  -0.000000  -0.000000  -0.000000   0.000000
    17  H    0.000000  -0.000000   0.000000  -0.000000   0.000000  -0.000000
    18  H    0.000000  -0.000000   0.000000  -0.000000  -0.000000  -0.000000
    19  C   -0.000000  -0.000000   0.000000   0.000000  -0.000000  -0.000000
    20  H   -0.000000  -0.000000   0.000000  -0.000000   0.000000  -0.000000
    21  H    0.000000   0.000000  -0.000000   0.000000  -0.000000   0.000000
    22  H    0.000000  -0.000000   0.000000  -0.000000  -0.000000  -0.000000
    23  C    0.000000   0.000000  -0.000000   0.000000   0.000000   0.000000
    24  H    0.000000  -0.000000   0.000000  -0.000000  -0.000000  -0.000000
    25  H   -0.000000  -0.000000   0.000000  -0.000000  -0.000000  -0.000000
    26  H   -0.000000  -0.000000   0.000000  -0.000000  -0.000000   0.000000
    27  N   -0.051392  -0.050768  -0.003251   0.003848   0.002512  -0.003152
    28  H   -0.005599  -0.003940   0.005279  -0.000100  -0.000803   0.004845
    29  C    0.345735   0.289709  -0.032651  -0.032042  -0.026457  -0.072495
    30  H   -0.035111  -0.051925   0.005166  -0.003046  -0.006109   0.001878
    31  C    5.129217  -0.046502   0.374630   0.363094   0.372812  -0.001894
    32  C   -0.046502   4.511900  -0.005554  -0.000641   0.004675   0.532540
    33  H    0.374630  -0.005554   0.540197  -0.028710  -0.027076   0.001172
    34  H    0.363094  -0.000641  -0.028710   0.564271  -0.022527  -0.000028
    35  H    0.372812   0.004675  -0.027076  -0.022527   0.507195  -0.000052
    36  O   -0.001894   0.532540   0.001172  -0.000028  -0.000052   8.061387
    37  O    0.001513   0.255577   0.000015   0.002338  -0.000002  -0.087016
    38  H    0.004718   0.002526  -0.000071  -0.000146  -0.000012   0.001244
    39  H    0.001342  -0.028001  -0.000141   0.005230  -0.000207   0.005099
              37         38         39
     1  C    0.000001   0.000105  -0.000000
     2  C   -0.000000  -0.000003   0.000000
     3  C   -0.000000   0.000011  -0.000000
     4  N   -0.000025  -0.000660   0.000003
     5  H    0.000000  -0.000000  -0.000000
     6  H   -0.000000  -0.000000  -0.000000
     7  O    0.000000   0.035306   0.000000
     8  N    0.000000   0.000244   0.000000
     9  C    0.000000  -0.000002  -0.000000
    10  N    0.000000   0.000000  -0.000000
    11  H    0.000000   0.000000  -0.000000
    12  H    0.000000  -0.000000  -0.000000
    13  H    0.000498   0.001081  -0.000041
    14  S    0.000000   0.000000  -0.000000
    15  C   -0.000000  -0.000000   0.000000
    16  H   -0.000000  -0.000000  -0.000000
    17  H    0.000000   0.000001   0.000000
    18  H    0.000000  -0.000000   0.000000
    19  C    0.000000  -0.000000   0.000000
    20  H   -0.000000   0.000002   0.000000
    21  H    0.000000  -0.000000  -0.000000
    22  H   -0.000000  -0.000000   0.000000
    23  C    0.000000   0.000022  -0.000000
    24  H   -0.000000  -0.000000   0.000000
    25  H    0.000000  -0.000001   0.000000
    26  H    0.000000  -0.000027  -0.000000
    27  N    0.003445   0.301204   0.000306
    28  H    0.000121  -0.030485  -0.000001
    29  C   -0.080621  -0.036946   0.007105
    30  H    0.003902  -0.003226   0.001573
    31  C    0.001513   0.004718   0.001342
    32  C    0.255577   0.002526  -0.028001
    33  H    0.000015  -0.000071  -0.000141
    34  H    0.002338  -0.000146   0.005230
    35  H   -0.000002  -0.000012  -0.000207
    36  O   -0.087016   0.001244   0.005099
    37  O    8.204971   0.000064   0.229419
    38  H    0.000064   0.377674  -0.000003
    39  H    0.229419  -0.000003   0.354170
 Mulliken charges:
               1
     1  C    0.777471
     2  C   -0.231370
     3  C    0.137328
     4  N   -0.652971
     5  H    0.179931
     6  H    0.220265
     7  O   -0.539518
     8  N   -0.621801
     9  C    0.616171
    10  N   -0.775742
    11  H    0.361238
    12  H    0.375324
    13  H    0.429979
    14  S    0.257980
    15  C   -0.598620
    16  H    0.225892
    17  H    0.214718
    18  H    0.216690
    19  C   -0.599447
    20  H    0.214949
    21  H    0.225723
    22  H    0.218739
    23  C   -0.419872
    24  H    0.227425
    25  H    0.227277
    26  H    0.270547
    27  N   -0.725560
    28  H    0.298384
    29  C   -0.097160
    30  H    0.162861
    31  C   -0.452585
    32  C    0.591977
    33  H    0.170998
    34  H    0.148460
    35  H    0.196052
    36  O   -0.489053
    37  O   -0.534201
    38  H    0.347377
    39  H    0.424146
 Sum of Mulliken charges =   1.00000
 Mulliken charges with hydrogens summed into heavy atoms:
               1
     1  C    0.777471
     2  C   -0.051440
     3  C    0.357593
     4  N   -0.222991
     7  O   -0.539518
     8  N   -0.621801
     9  C    0.616171
    10  N   -0.039181
    14  S    0.257980
    15  C    0.058680
    19  C    0.059964
    23  C    0.305377
    27  N   -0.079800
    29  C    0.065701
    31  C    0.062924
    32  C    0.591977
    36  O   -0.489053
    37  O   -0.110055
 APT charges:
               1
     1  C    1.087511
     2  C   -0.531534
     3  C    0.561301
     4  N   -0.786792
     5  H    0.056203
     6  H    0.093542
     7  O   -0.869344
     8  N   -1.151556
     9  C    1.082499
    10  N   -0.772655
    11  H    0.235779
    12  H    0.277634
    13  H    0.549533
    14  S   -0.278437
    15  C    0.017653
    16  H    0.040548
    17  H    0.018256
    18  H    0.045444
    19  C    0.012541
    20  H    0.018993
    21  H    0.040018
    22  H    0.048394
    23  C    1.243854
    24  H   -0.023098
    25  H   -0.029039
    26  H    0.059619
    27  N   -0.527002
    28  H    0.147571
    29  C    0.272879
    30  H   -0.037917
    31  C    0.058384
    32  C    1.089806
    33  H    0.000350
    34  H   -0.015429
    35  H    0.017288
    36  O   -0.910895
    37  O   -0.716044
    38  H    0.274834
    39  H    0.299309
 Sum of APT charges =   1.00000
 APT charges with hydrogens summed into heavy atoms:
               1
     1  C    1.087511
     2  C   -0.475331
     3  C    0.654843
     4  N   -0.237259
     7  O   -0.869344
     8  N   -1.151556
     9  C    1.082499
    10  N   -0.259242
    14  S   -0.278437
    15  C    0.121901
    19  C    0.119946
    23  C    1.251337
    27  N   -0.104596
    29  C    0.234962
    31  C    0.060592
    32  C    1.089806
    36  O   -0.910895
    37  O   -0.416734
 Electronic spatial extent (au):  <R**2>=           8470.4191
 Charge=              1.0000 electrons
 Dipole moment (field-independent basis, Debye):
    X=             -4.2382    Y=             -6.6149    Z=             -1.5403  Tot=              8.0057
 Quadrupole moment (field-independent basis, Debye-Ang):
   XX=            -60.7921   YY=            -45.6123   ZZ=           -105.6886
   XY=              8.1415   XZ=             -0.4719   YZ=              3.1523
 Traceless Quadrupole moment (field-independent basis, Debye-Ang):
   XX=              9.9055   YY=             25.0854   ZZ=            -34.9909
   XY=              8.1415   XZ=             -0.4719   YZ=              3.1523
 Octapole moment (field-independent basis, Debye-Ang**2):
  XXX=           -142.8637  YYY=              9.3680  ZZZ=             17.2481  XYY=             99.7287
  XXY=            -70.8880  XXZ=              5.0205  XZZ=            -16.0999  YZZ=             -2.2860
  YYZ=            -39.3089  XYZ=             17.8989
 Hexadecapole moment (field-independent basis, Debye-Ang**3):
 XXXX=          -3977.4397 YYYY=          -3536.1889 ZZZZ=           -511.5103 XXXY=          -1057.5399
 XXXZ=             45.4521 YYYX=           -784.8112 YYYZ=           -233.2815 ZZZX=             81.4352
 ZZZY=           -275.3122 XXYY=          -1568.7518 XXZZ=           -812.6391 YYZZ=           -912.5255
 XXYZ=            -74.8906 YYXZ=            -26.1711 ZZXY=           -260.9891
 N-N= 1.457665508440D+03 E-N=-5.796711676260D+03  KE= 1.227146040274D+03
  Exact polarizability: 229.757  -0.091 196.114 -10.174   6.682 114.056
 Approx polarizability: 312.463  -8.256 286.900 -10.573   4.967 168.508
 Calling FoFJK, ICntrl=    100127 FMM=F ISym2X=0 I1Cent= 0 IOpClX= 0 NMat=1 NMatS=1 NMatT=0.
 -------------------------------------------------------------------
 Center     Atomic                   Forces (Hartrees/Bohr)
 Number     Number              X              Y              Z
 -------------------------------------------------------------------
      1        6           0.002202701    0.001950343    0.002111171
      2        6          -0.002318479   -0.003454870   -0.000540436
      3        6           0.000804070   -0.000105779   -0.002227941
      4        7          -0.011887169    0.008151666   -0.000755559
      5        1          -0.000139789   -0.001036012    0.000283215
      6        1           0.000434477   -0.000151913    0.000546890
      7        8           0.007685816   -0.007188294   -0.002352378
      8        7           0.004606429    0.002464303    0.000862108
      9        6           0.000112680   -0.002401132    0.002009168
     10        7          -0.001134624   -0.001718204   -0.000638260
     11        1          -0.000018118   -0.000193739    0.000160738
     12        1          -0.000004693   -0.000359384   -0.000134090
     13        1          -0.002029266    0.002503990    0.003091558
     14       16           0.000679055    0.003007537   -0.001618158
     15        6           0.000049376   -0.002199573   -0.002189176
     16        1           0.000074250   -0.000385314    0.000657466
     17        1           0.000471563   -0.000135156    0.000586076
     18        1          -0.000077489    0.000905899    0.001733891
     19        6          -0.001398292    0.001893529   -0.000632509
     20        1          -0.000418199   -0.000812161    0.000487755
     21        1           0.000922370   -0.000093256   -0.000103641
     22        1           0.000773258   -0.000716628    0.000979420
     23        6           0.000586347   -0.000014770   -0.005084931
     24        1           0.002214586   -0.000072607   -0.000265252
     25        1          -0.003714363   -0.001601362    0.001325460
     26        1          -0.000465962   -0.001140404    0.001377554
     27        7           0.004051937    0.005680108    0.009186241
     28        1          -0.003076031    0.002269544   -0.007694977
     29        6          -0.001831813   -0.005581073    0.001830341
     30        1           0.000742177    0.000504363   -0.000566816
     31        6           0.000806565   -0.003978451   -0.000334057
     32        6           0.019215270    0.004136145    0.004505130
     33        1          -0.001330246    0.000206900   -0.002583383
     34        1          -0.001842201   -0.001331499    0.001005252
     35        1          -0.000277435    0.001035487   -0.000140051
     36        8          -0.012168891   -0.003581181    0.001161956
     37        8          -0.006134276    0.011244461   -0.004479269
     38        1           0.001327898   -0.002652403   -0.000044111
     39        1           0.002506510   -0.005049111   -0.001516396
 -------------------------------------------------------------------
 Cartesian Forces:  Max     0.019215270 RMS     0.003685150
 FormGI is forming the generalized inverse of G from B-inverse, IUseBI=4.
 GSVD:  received Info=                   1 from GESDD.

 GradGradGradGradGradGradGradGradGradGradGradGradGradGradGradGradGradGrad
 Berny optimization.
 Internal  Forces:  Max     0.016832257 RMS     0.002863721
 Search for a saddle point.
 Step number   1 out of a maximum of  234
 All quantities printed in internal units (Hartrees-Bohrs-Radians)
 Swapping is turned off.
 Second derivative matrix not updated -- analytic derivatives used.
 ITU=  0
     Eigenvalues ---   -0.02856  -0.00613  -0.00124  -0.00029   0.00039
     Eigenvalues ---    0.00146   0.00165   0.00183   0.00193   0.00226
     Eigenvalues ---    0.00309   0.00450   0.00666   0.00679   0.01191
     Eigenvalues ---    0.01208   0.01238   0.01406   0.01482   0.01564
     Eigenvalues ---    0.01810   0.01940   0.02112   0.02313   0.02697
     Eigenvalues ---    0.02960   0.03169   0.03305   0.03483   0.03830
     Eigenvalues ---    0.03903   0.04020   0.04391   0.04736   0.04823
     Eigenvalues ---    0.04938   0.05221   0.05605   0.05728   0.05766
     Eigenvalues ---    0.05975   0.06048   0.06065   0.06592   0.07593
     Eigenvalues ---    0.08099   0.09618   0.10874   0.11088   0.11305
     Eigenvalues ---    0.11491   0.11898   0.12295   0.12569   0.12807
     Eigenvalues ---    0.13585   0.13689   0.14128   0.14778   0.14966
     Eigenvalues ---    0.15109   0.15461   0.16832   0.17457   0.17537
     Eigenvalues ---    0.17677   0.18130   0.19228   0.20741   0.20953
     Eigenvalues ---    0.21757   0.22148   0.22321   0.22843   0.24510
     Eigenvalues ---    0.27435   0.28598   0.31169   0.32262   0.32416
     Eigenvalues ---    0.33221   0.33820   0.34306   0.34408   0.34701
     Eigenvalues ---    0.34765   0.35316   0.35318   0.35696   0.36992
     Eigenvalues ---    0.37171   0.37530   0.38040   0.38070   0.38275
     Eigenvalues ---    0.38971   0.39957   0.41519   0.42288   0.43934
     Eigenvalues ---    0.45318   0.48087   0.48089   0.48436   0.50391
     Eigenvalues ---    0.55493   0.58945   0.71653   0.80885   0.94430
     Eigenvalues --- 1000.000001000.000001000.000001000.000001000.00000
     Eigenvalues --- 1000.000001000.000001000.000001000.000001000.00000
     Eigenvalues --- 1000.000001000.000001000.000001000.000001000.00000
     Eigenvalues --- 1000.000001000.000001000.000001000.000001000.00000
     Eigenvalues --- 1000.000001000.000001000.000001000.000001000.00000
     Eigenvalues --- 1000.000001000.000001000.000001000.000001000.00000
     Eigenvalues --- 1000.000001000.000001000.000001000.000001000.00000
     Eigenvalues --- 1000.000001000.000001000.000001000.000001000.00000
     Eigenvalues --- 1000.000001000.000001000.000001000.000001000.00000
     Eigenvalues --- 1000.000001000.000001000.000001000.000001000.00000
     Eigenvalues --- 1000.000001000.000001000.000001000.000001000.00000
     Eigenvalues --- 1000.000001000.000001000.000001000.000001000.00000
     Eigenvalues --- 1000.000001000.000001000.000001000.000001000.00000
     Eigenvalues --- 1000.000001000.000001000.000001000.000001000.00000
     Eigenvalues --- 1000.000001000.000001000.000001000.000001000.00000
     Eigenvalues --- 1000.000001000.000001000.000001000.000001000.00000
     Eigenvalues --- 1000.000001000.000001000.000001000.000001000.00000
     Eigenvalues --- 1000.00000
 Eigenvectors required to have negative eigenvalues:
                          R12       R19       D61       D60       A43
   1                    0.62139  -0.57629   0.24111  -0.22984   0.15170
                          A40       A41       A48       A44       A39
   1                   -0.14178  -0.14092   0.13868   0.13341  -0.12830
 RFO step:  Lambda0=1.616401173D-06 Lambda=-6.62520635D-03.
 Linear search not attempted -- option 19 set.
 Maximum step size (   0.300) exceeded in Quadratic search.
    -- Step size scaled by   0.625
 Iteration  1 RMS(Cart)=  0.20477090 RMS(Int)=  0.01612251
 Iteration  2 RMS(Cart)=  0.11464374 RMS(Int)=  0.00500248
 Iteration  3 RMS(Cart)=  0.01092357 RMS(Int)=  0.00125840
 Iteration  4 RMS(Cart)=  0.00011224 RMS(Int)=  0.00125812
[...]
 333,-0.00000381,-0.00000194,-0.00001104,0.00002657,0.00000052,-0.00014
 613,0.00025305,0.00009062,-0.00009810,0.00009404,0.00001309,0.00009736
 ,-0.00002119,-0.00001210,-0.00002321,-0.00000552,0.00000697,0.00000336
 ,-0.00000337,-0.00000370,0.00000164,0.00000257,-0.00000204,0.00019627,
 0.00040247,-0.00006899,-0.00001842,-0.00000431,-0.00000052,-0.00000607
 ,-0.00000395,0.00000558,-0.00000074,0.00000031,-0.00000277,0.00000207,
 -0.00000075,-0.00000472,0.00000081,0.00000153,0.00000064,-0.00000574,-
 0.00000804,-0.00000899,0.00000042,-0.00000001,-0.00000063,0.,0.0000013
 4,0.00000312,-0.00000089,-0.00000012,0.00000071,0.00006455,0.00000160,
 -0.00000268,-0.00000421,-0.00000200,-0.00000176,-0.00000385,0.00000153
 ,0.00000062,-0.00000602,-0.00000924,-0.00000559,0.00044083,0.00220003,
 0.00119009,0.00030662,-0.00046978,-0.00011800,0.02114556,-0.01254215,-
 0.01278865,-0.00031733,0.00109844,0.00088552,0.09224477,-0.08960382,-0
 .03765278,-0.00595623,-0.00299860,-0.00138301,0.00953482,-0.00495734,-
 0.00448108,-0.02139806,0.01113724,0.00937149,-0.09905310,0.09572793,0.
 00019433,-0.00002785,-0.00001312,-0.00005087,-0.00005430,-0.00000252,-
 0.00006187,0.00009448,0.00000855,-0.00006633,-0.00022836,0.00000087,-0
 .00000454,-0.00000609,-0.00000129,-0.00001075,0.00002482,-0.00000319,-
 0.00009206,0.00008074,0.00002400,-0.00008515,0.00000147,0.00000167,0.0
 0007553,0.00002527,-0.00000196,-0.00002574,-0.00004141,-0.00000106,0.0
 0000568,0.00000060,-0.00000048,-0.00000147,0.00000669,0.00000017,0.000
 14162,0.00043455,-0.00002534,-0.00003437,-0.00000663,0.00000104,-0.000
 00496,-0.00000595,0.00000736,-0.00000095,0.00000157,-0.00000199,0.0000
 0362,-0.00000131,-0.00000100,0.00000145,0.00000077,0.00000010,-0.00000
 632,0.00000078,-0.00000705,0.00000375,-0.00000212,0.00000329,-0.000000
 39,-0.00000012,0.00000336,0.00000152,0.00000180,-0.00000026,0.00011366
 ,0.00000335,-0.00000637,-0.00000726,-0.00000043,-0.00000059,-0.0000063
 8,-0.00000133,0.00000158,0.00000099,0.00000413,0.00000156,0.00018903,0
 .00215408,0.00138855,-0.00021022,0.00001306,0.00005256,0.01894153,-0.0
 1067773,-0.01101967,0.00071096,0.00084706,0.00051698,0.08456657,-0.038
 36750,-0.08576186,-0.00383704,-0.00176018,-0.00242341,-0.02217537,0.01
 009424,0.01121057,0.01208961,-0.00609650,-0.00613553,-0.09236243,0.045
 35504,0.09140484,-0.00152868,0.00173873,0.00021394,0.00085253,-0.00026
 383,-0.00006609,-0.00172252,-0.00074689,-0.00005766,0.00309228,-0.0016
 0017,0.00066956,-0.00005398,-0.00009967,-0.00001707,0.00022280,-0.0005
 3390,-0.00004578,0.00042344,-0.00185956,-0.00015733,0.00040364,-0.0010
 0488,-0.00013082,-0.00063145,0.00051107,0.00007219,0.00013966,-0.00021
 066,-0.00002382,-0.00000768,0.00003854,0.00000595,-0.00003556,-0.00000
 583,0.00000288,-0.00852355,-0.00746064,-0.00088675,0.00001400,0.000007
 91,0.00000160,0.00001419,0.00003018,-0.00001417,0.00000143,-0.00000275
 ,0.00000760,0.00000076,-0.00000094,0.00000587,0.00000244,-0.00000178,0
 .00000087,0.00001583,0.00002198,0.00002262,-0.00000050,0.00000140,-0.0
 0000700,0.00000093,0.00000048,-0.00000785,0.00000192,-0.00000179,-0.00
 000141,-0.00007671,-0.00001675,0.00000269,0.00000054,-0.00000544,-0.00
 000029,0.00000037,-0.00000684,0.00000005,0.00007711,0.00010155,0.00000
 769,-0.00000376,0.00405338,-0.00170963,-0.00022175,-0.00025736,-0.0003
 5818,0.00279748,0.03304467,0.00684375,-0.00195152,0.00121982,0.0001544
 0,-0.00792762,0.00042724,-0.00016070,-0.14704948,0.16743158,0.00535827
 ,0.00028127,0.00001410,0.00064562,0.00042378,0.00065540,-0.00012933,0.
 00122821,0.00198527,0.00169580,0.13306803,0.01094134,-0.00311338,-0.00
 049529,-0.00193619,-0.00356957,-0.00031759,-0.00582384,0.00527597,0.00
 066871,-0.00931111,-0.02540483,-0.00071455,-0.00029408,-0.00048762,-0.
 00005461,-0.00027191,0.00104546,0.00002385,-0.00452124,0.00289980,0.00
 070917,-0.00479917,-0.00127965,-0.00003888,0.00353077,0.00222892,0.000
 06780,-0.00130471,-0.00268652,-0.00010579,0.00028791,0.00009322,-0.000
 03547,-0.00013256,0.00037150,0.00002390,0.00147591,0.01286554,0.000917
 68,-0.00171018,-0.00030378,0.00004582,-0.00020512,-0.00010616,0.000306
 50,-0.00001336,0.00009496,-0.00009549,0.00010880,-0.00001608,-0.000055
 35,0.00006211,0.00000831,0.00001835,-0.00024467,0.00000323,-0.00029862
 ,0.00010983,-0.00003035,0.00003856,0.00000129,0.00005520,0.00012810,0.
 00005853,0.00001728,-0.00001918,0.00559969,0.00013879,-0.00027776,-0.0
 0036495,-0.00005973,-0.00008167,-0.00035747,-0.00007149,0.00010784,0.0
 0005636,0.00033257,0.00001948,-0.00254572,0.00656844,-0.00013456,0.000
 51217,0.00022369,-0.00189745,0.00914330,-0.03275877,0.00915514,0.00312
 533,-0.00150635,-0.00333218,0.00538585,0.00102695,0.00156043,0.1776124
 6,-0.66749332,0.03083209,-0.00072678,-0.00013960,-0.00091590,0.0001569
 6,0.00121356,-0.00003105,-0.00045521,-0.00112577,-0.00188225,-0.159244
 34,0.79884755,0.00093049,-0.00049443,-0.00034784,-0.00004588,-0.000159
 67,-0.00003633,-0.00038832,0.00017937,-0.00000037,-0.00060384,-0.00157
 652,0.00331146,-0.00001514,-0.00001620,-0.00008323,0.00003401,-0.00008
 190,-0.00021889,-0.00037228,0.00052937,0.00064134,-0.00029282,0.000140
 57,-0.00005697,0.00019375,0.00003753,-0.00010835,-0.00004583,-0.000058
 22,0.00009494,0.00001010,0.00000121,-0.00003439,-0.00000049,0.00001149
 ,-0.00003409,0.00096493,0.00285131,-0.00451846,-0.00006341,-0.00001215
 ,-0.00000448,-0.00001815,-0.00000247,0.00001013,-0.00000302,-0.0000023
 1,-0.00000451,0.00000986,-0.00000649,-0.00001661,0.00000903,0.00000639
 ,0.00000351,-0.00001094,-0.00002133,-0.00002894,-0.00000378,0.00000640
 ,-0.00000273,0.00000212,0.00000751,0.00001090,-0.00000542,-0.00000258,
 0.00000300,0.00020590,0.00000321,-0.00001904,-0.00002107,-0.00001151,-
 0.00000900,-0.00000658,0.00001225,-0.00000199,-0.00001553,-0.00001413,
 -0.00002523,0.00079800,-0.00386344,-0.00048497,-0.00136987,0.00052117,
 0.00161078,0.01149131,-0.00656070,0.02099500,0.00422840,-0.00327667,-0
 .00239584,-0.00202785,0.00033333,-0.00009256,0.00253367,0.04100121,-0.
 08220427,-0.00020958,0.00040993,0.00027182,-0.00015028,-0.00061198,0.0
 0011670,0.00011746,0.00022161,0.00042147,-0.01710274,-0.07670494,0.058
 20930,-0.00051501,0.00166013,0.00025913,-0.00020695,-0.00055111,-0.000
 06354,-0.00085032,0.00103120,0.00013586,0.00064913,-0.00112323,-0.0002
 6695,-0.00004062,-0.00006406,0.00000568,-0.00009848,0.00012186,0.00002
 846,0.00017200,-0.00149389,-0.00035401,-0.00022043,-0.00106529,-0.0000
 8864,0.00014743,0.00069656,0.00008889,-0.00016072,-0.00064579,-0.00006
 642,0.00004909,0.00004778,0.00001095,-0.00005153,0.00007896,0.00001725
 ,0.00058705,0.00256208,0.00033034,-0.00028977,-0.00004483,0.00001216,-
 0.00001610,0.00001642,0.00003935,-0.00000100,0.00001539,-0.00000628,0.
 00002140,-0.00000345,0.00000157,0.00001579,-0.00000195,0.00000389,-0.0
 0002449,0.00003895,-0.00002023,0.00002632,-0.00000823,0.00000210,-0.00
 000091,0.00000740,0.00001043,0.00001924,0.00000353,-0.00000742,0.00092
 385,0.00002787,-0.00004318,-0.00005477,-0.00000888,-0.00000923,-0.0000
 5692,-0.00002163,0.00001773,0.00008119,0.00017385,0.00002481,-0.009314
 10,0.00237750,0.00642830,-0.00001224,-0.00028624,-0.00064373,-0.006975
 90,-0.02232961,0.02032804,0.00094533,-0.00121268,-0.00058023,-0.003026
 27,-0.00212685,0.00012925,-0.20017571,-0.03060698,0.10181062,-0.000079
 25,0.00004799,0.00076958,-0.00022600,0.00187396,0.00027802,0.00070825,
 0.00116224,0.00066113,0.02568604,-0.01994898,-0.00487813,0.28729430,0.
 00286060,0.00033854,-0.00000569,-0.00082686,-0.00128921,-0.00011679,-0
 .00182188,0.00214256,0.00026957,-0.00116129,-0.00544328,-0.00049093,-0
 .00009869,-0.00015598,-0.00000826,-0.00015591,0.00036712,0.00004575,-0
 .00134148,0.00015018,0.00007549,-0.00143835,-0.00076094,-0.00002559,0.
 00122561,0.00092748,0.00005212,-0.00049111,-0.00109399,-0.00006245,0.0
 0011276,0.00004593,-0.00000495,-0.00006072,0.00015224,0.00001508,0.003
 66555,0.00957928,0.00051317,-0.00065474,-0.00011566,0.00001921,-0.0000
 7169,-0.00002657,0.00011403,-0.00000520,0.00003584,-0.00003235,0.00004
 449,-0.00000731,-0.00001828,0.00002741,0.00000232,0.00000781,-0.000088
 14,0.00001631,-0.00010320,0.00004642,-0.00001452,0.00001328,-0.0000003
 3,0.00002032,0.00004459,0.00002750,0.00000773,-0.00000915,0.00213085,0
 .00006008,-0.00010277,-0.00013259,-0.00002296,-0.00002795,-0.00013130,
 -0.00003096,0.00003950,0.00005920,0.00018231,0.00001509,0.00017033,0.0
 0244156,-0.00037931,0.00076285,-0.00035579,-0.00090538,0.00238307,0.00
 595199,0.00165624,-0.00094777,0.00032646,-0.00049214,-0.00149328,-0.00
 317411,-0.00004764,-0.08515983,-0.15333849,0.07748413,0.00007685,-0.00
 000427,-0.00008539,0.00122330,0.00246710,-0.00105601,0.00061741,0.0013
 4030,-0.00019186,-0.03362854,-0.09395418,0.04372166,-0.06401190,0.6548
 4689,-0.00059010,-0.00105574,-0.00022512,0.00031838,0.00071843,0.00011
 953,0.00109731,-0.00112299,-0.00020102,-0.00016364,0.00258118,0.000113
 37,0.00005362,0.00009314,-0.00000891,0.00006893,-0.00016173,-0.0000838
 7,0.00034190,0.00086807,0.00029333,0.00057904,0.00086811,0.00010613,-0
 .00044223,-0.00066215,-0.00010796,0.00023415,0.00068403,0.00009228,-0.
 00006036,-0.00003730,-0.00002154,0.00004421,-0.00008362,-0.00003317,-0
 .00087772,-0.00477500,0.00024940,0.00036020,0.00006245,-0.00001608,0.0
 0002610,0.00000645,-0.00005996,0.00000083,-0.00002337,0.00001370,-0.00
 002089,-0.00000026,-0.00000660,-0.00001071,0.00000659,-0.00000260,0.00
 004169,-0.00003620,0.00003591,-0.00003105,0.00001159,-0.00000856,0.000
 00105,-0.00000664,-0.00001858,-0.00002009,-0.00000480,0.00000891,-0.00
 115259,-0.00003379,0.00005299,0.00006932,0.00000931,0.00001268,0.00007
 432,0.00003072,-0.00002706,-0.00006797,-0.00015461,-0.00003185,0.00732
 815,-0.00077463,-0.00208141,-0.00104209,0.00013760,0.00115771,0.012620
 97,0.01596146,0.00424391,0.00377759,-0.00222739,-0.00041949,-0.0001543
 1,0.00057306,0.00066336,0.11500000,0.04315021,-0.12939536,-0.00023824,
 -0.00001834,-0.00006575,0.00069241,-0.00002415,-0.00118585,-0.00009551
 ,0.00027580,-0.00005338,-0.00174092,0.03740704,0.00300586,-0.14985052,
 -0.10188616,0.14547774,0.00297596,0.00033626,0.00014759,-0.00045865,-0
 .00038321,-0.00001448,-0.00054355,0.00055885,0.00005119,-0.00064043,-0
 .00064106,-0.00014457,-0.00003551,-0.00004631,-0.00000075,-0.00004428,
 0.00009342,0.00000957,-0.00422372,-0.00028114,-0.00028842,-0.00088816,
 0.00101961,0.00015572,0.00093964,-0.00016529,-0.00004524,-0.00021073,-
 0.00005245,0.00000066,0.00003080,-0.00003009,-0.00000552,0.00001292,0.
 00002043,-0.00000064,-0.00084671,0.00256413,0.00051097,-0.00013743,-0.
 00004142,0.00000062,-0.00004844,-0.00008657,0.00004532,0.00000270,0.00
 002328,-0.00001869,-0.00001136,-0.00000271,-0.00002875,0.00000264,0.00
 001592,-0.00000138,-0.00005529,-0.00005448,-0.00006453,-0.00000387,-0.
 00001412,0.00003512,0.00000385,0.00001158,0.00002477,0.00000483,0.0000
 1642,0.00000500,0.00044800,-0.00004926,-0.00002181,-0.00002693,-0.0000
 0225,-0.00000098,-0.00002757,0.00000202,0.00000343,0.00003298,-0.00009
 956,-0.00002426,-0.04459317,-0.06330356,-0.05028725,-0.00787149,-0.014
 53305,-0.01306855,-0.01395060,-0.01878425,-0.01067598,0.00076237,0.000
 68472,0.00016037,-0.00127838,-0.00107667,0.00240683,-0.00080188,-0.004
 66947,-0.00084347,0.00004938,0.00022054,0.00025714,0.00071204,-0.00044
 835,-0.00045495,0.00027564,-0.00027780,-0.00014052,0.00158539,0.001586
 62,-0.00050560,0.00175710,0.00144398,-0.00083995,0.06708517,0.00651524
 ,-0.00596461,-0.00069842,-0.00025631,0.00030598,0.00003334,0.00040945,
 -0.00059797,-0.00003321,-0.00229036,0.00002692,0.00007195,0.00002072,0
 .00002639,-0.00000081,-0.00008014,0.00010351,0.00001161,-0.00331026,0.
 00225376,0.00050577,-0.00049515,0.00303780,0.00019055,0.00082486,-0.00
 080045,-0.00015240,-0.00003634,0.00074642,0.00005557,-0.00006410,-0.00
 006462,-0.00000231,0.00006108,-0.00004910,0.00000560,0.00110408,0.0009
 8852,-0.00003247,0.00054986,0.00011735,-0.00001346,0.00007411,0.000041
 16,-0.00011316,0.00000814,-0.00002785,0.00003539,-0.00004867,0.0000205
 5,0.00001730,-0.00002008,-0.00000473,-0.00000679,0.00008970,-0.0000081
 9,0.00010889,-0.00005393,0.00002378,-0.00001097,0.00000432,-0.00001101
 ,-0.00004379,-0.00002068,-0.00000882,0.00000778,-0.00171525,-0.0000077
 3,0.00008441,0.00010344,0.00005658,0.00002495,0.00010143,0.00006207,-0
 .00002493,-0.00036787,-0.00035980,-0.00000590,-0.10507574,-0.26305742,
 -0.16232082,0.00999310,0.01353691,0.01313620,-0.00086062,-0.01763343,-
 0.01461851,0.00040723,0.00011703,-0.00025035,-0.00249115,-0.00287704,0
 .00347960,-0.00029851,0.00200203,0.00041954,-0.00012563,0.00013721,-0.
 00007141,-0.00058698,-0.00056481,-0.00108155,-0.00000203,0.00026999,0.
 00027701,0.00045665,-0.00068463,-0.00060303,0.00088841,-0.00017861,-0.
 00044972,0.09674021,0.26925085,0.00077671,-0.00047671,0.00010447,-0.00
 001347,0.00000655,0.00000011,-0.00003828,-0.00001954,-0.00000060,-0.00
 009469,0.00008402,-0.00043796,0.00000168,-0.00000088,0.00000638,-0.000
 00668,0.00000826,0.00000317,-0.00091916,-0.00043886,-0.00285128,-0.000
 05282,0.00022071,0.00026560,0.00006930,-0.00003245,0.00018555,-0.00000
 967,0.00004714,-0.00005061,-0.00000440,-0.00000543,0.00002390,0.000004
 31,-0.00000057,-0.00000735,0.00014223,-0.00013980,0.00062954,0.0000457
 6,0.00001124,0.00000603,0.00001511,-0.00001796,-0.00001104,0.00000479,
 0.00000797,0.00000214,-0.00001630,0.00000434,0.00002921,-0.00001164,-0
 .00000805,-0.00000634,0.00000786,0.00003948,0.00002700,0.00001731,-0.0
 0000611,0.00000792,-0.00000614,-0.00001431,-0.00001095,0.00000577,0.00
 000086,-0.00000647,-0.00013733,0.00001117,-0.00000560,0.00001420,0.000
 02473,0.00000886,0.00000452,-0.00001346,0.00000081,-0.00003791,-0.0000
 1893,0.00005052,-0.08094403,-0.15523918,-0.19622156,-0.00568885,-0.027
 71726,-0.01850893,0.00999572,0.01777240,0.01419937,-0.00058812,-0.0000
 1168,0.00036137,0.00232501,0.00176688,-0.00183692,0.00047618,0.0017902
 4,0.00080263,0.00036781,0.00005257,0.00015964,0.00043706,0.00094673,0.
 00092050,-0.00017805,0.00001631,-0.00021319,0.00032257,-0.00054026,-0.
 00068931,0.00013414,-0.00023811,-0.00042458,0.07366997,0.16211889,0.20
 326075,0.00040845,-0.00037549,-0.00004118,-0.00003245,0.00001897,0.000
 00357,0.00005153,-0.00003740,-0.00000152,-0.00025706,-0.00009797,-0.00
 009336,0.00000127,0.00000159,0.00000119,-0.00000085,0.00000928,0.00000
 705,-0.00019380,0.00038069,0.00004838,-0.00008280,0.00020649,0.0000199
 1,0.00008487,-0.00010886,-0.00001083,-0.00000529,0.00006957,0.00000349
 ,-0.00000145,-0.00001027,0.,0.00000846,-0.00000845,0.00000015,0.000305
 69,0.00020338,0.00023676,0.00000838,-0.00000166,-0.00000054,-0.0000030
 1,-0.00001155,0.00000366,-0.00000052,0.00000018,-0.00000242,-0.0000010
 3,0.00000068,0.00000110,-0.00000329,-0.00000104,-0.00000084,-0.0000041
 7,-0.00000606,-0.00000549,-0.00000008,-0.00000052,0.00000241,-0.000000
 50,-0.00000184,0.00000224,-0.00000211,0.00000015,0.00000034,-0.0000224
 9,-0.00000056,0.00000059,0.00000122,0.00000050,0.00000007,0.00000109,-
 0.00000052,0.00000025,-0.00001305,-0.00002749,-0.00000060,0.00038018,0
 .00065446,-0.00121190,0.00017655,0.00029787,-0.00005099,-0.00161580,-0
 .00206171,0.00233770,-0.00156130,0.00006188,-0.00060242,-0.00058008,0.
 00023510,0.00069018,0.00971599,-0.02878439,-0.00475399,0.00026826,0.00
 012883,-0.00059610,0.00042238,0.00057772,0.00112042,-0.00007824,0.0000
 3901,-0.00021181,-0.00059932,-0.00554364,0.00662753,-0.09668603,0.1768
 4343,0.01466869,0.00001675,-0.00015220,-0.00009048,0.08989364,0.000163
 23,-0.00037324,-0.00002927,0.00006996,0.00008902,0.00000819,0.00008297
 ,-0.00019290,-0.00001669,-0.00014196,0.00014974,-0.00009785,0.00000525
 ,0.00000523,0.00000240,0.00001349,-0.00002805,0.00000243,-0.00005449,0
 .00030567,0.00002891,0.00004566,0.00019449,0.00001452,-0.00004614,-0.0
 0012941,-0.00000749,0.00003789,0.00012790,0.00000456,-0.00001158,-0.00
 001029,0.00000119,0.00000840,-0.00001859,-0.00000002,0.00002155,-0.000
 17062,0.00031446,0.00006870,0.00001087,-0.00000203,0.00000511,-0.00000
 456,-0.00000968,0.00000105,-0.00000230,0.00000140,-0.00000707,0.000002
 00,0.00000268,-0.00000567,-0.00000100,-0.00000145,0.00000613,-0.000006
 71,0.00000740,-0.00000641,0.00000177,-0.00000032,0.00000038,-0.0000020
 5,-0.00000307,-0.00000446,-0.00000101,0.00000129,-0.00022296,-0.000008
 11,0.00001093,0.00001298,0.00000269,0.00000176,0.00001211,0.00000250,-
 0.00000243,-0.00001538,-0.00003728,-0.00000223,0.00124994,-0.00022564,
 -0.00128531,0.00009423,0.00016944,-0.00007863,-0.00082864,0.00228879,-
 0.00018110,-0.00063887,0.00040384,0.00002911,0.00168396,0.00166167,-0.
 00065769,0.01347168,-0.03287481,-0.00225417,-0.00026468,-0.00034806,0.
 00008051,0.00014593,-0.00065365,-0.00103449,-0.00009533,-0.00042881,-0
 .00006959,-0.00478737,0.00148081,0.00408513,0.13272350,-0.42143568,0.0
 1009338,-0.00029491,-0.00022400,0.00000906,-0.14249817,0.45028032,-0.0
 0041285,0.00030393,0.00009335,0.00000438,0.00003065,-0.00001003,0.0001
 0161,-0.00000364,0.00001234,0.00024057,0.00048083,-0.00013500,0.000004
 90,0.00000779,0.00001068,-0.00000256,0.00000241,0.00001773,0.00015832,
 -0.00033543,-0.00015370,0.00009593,-0.00011769,-0.00002543,-0.00006607
 ,0.00002590,0.00003138,0.00000932,-0.00001392,-0.00002903,-0.00000033,
 0.00000237,0.00001283,-0.00000180,-0.00000023,0.00001265,-0.00020874,-
 0.00070042,0.00033340,0.00000399,0.00000065,0.00000293,0.00000605,0.00
 000004,-0.00000056,0.00000091,0.00000245,0.00000230,-0.00000236,0.0000
 0237,0.00000903,-0.00000231,-0.00000435,-0.00000109,0.00000181,0.00001
 261,0.00001005,0.00000239,-0.00000266,0.00000229,-0.00000034,-0.000002
 59,-0.00000230,0.00000258,0.00000102,-0.00000187,-0.00001545,0.0000016
 5,0.00000212,0.00000277,0.00000280,0.00000245,0.00000062,-0.00000601,0
 .00000225,0.00001117,0.00001641,0.00001183,-0.00103637,-0.00087151,-0.
 00035578,0.00002535,0.00023421,-0.00002921,0.00208520,0.00087590,0.000
 14166,-0.00042894,0.00031812,-0.00011631,0.00087124,0.00238825,-0.0012
 3280,-0.01506813,0.02244525,-0.00401510,-0.00016832,-0.00021126,0.0001
 1846,0.00046492,-0.00319347,-0.00119726,-0.00050470,-0.00087830,0.0006
 2473,0.00658361,0.00599838,0.00271218,0.02535082,-0.01779636,-0.021168
 09,-0.00000799,-0.00005034,0.00022722,-0.01810120,-0.00896581,0.024079
 69\\-0.00000002,-0.00000020,0.00000013,0.00000027,0.00000019,0.0000003
 9,0.00000019,0.00000026,-0.00000026,-0.00000006,0.00000028,-0.00000036
 ,0.00000040,0.00000032,0.00000050,0.00000010,0.00000051,-0.00000069,-0
 .00000003,-0.00000008,0.00000002,0.00012334,-0.00106486,-0.00014020,0.
 00000017,0.00000021,0.00000095,0.00000055,-0.00000009,0.00000157,0.000
 00059,-0.00000026,0.00000196,0.00000062,-0.00000003,0.00000169,-0.0000
 0010,0.00000032,-0.00000085,0.00006414,-0.00096372,-0.00012282,-0.0000
 0017,-0.00000126,0.00000176,-0.00000019,-0.00000141,0.00000199,-0.0000
 0027,-0.00000111,0.00000124,-0.00000040,-0.00000168,0.00000189,0.00000
 068,-0.00000007,0.00000198,0.00000056,0.00000004,0.00000140,0.00000065
 ,-0.00000023,0.00000215,0.00000101,0.00000028,0.00000218,-0.00018628,0
 .00202738,0.00026751,0.00000061,0.,0.00000171,0.00000007,-0.00000079,0
 .00000170,0.00000012,-0.00000037,0.00000104,-0.00000021,0.00000053,-0.
 00000143,0.00000009,0.00000090,-0.00000137,-0.00000052,0.00000033,-0.0
 0000206,-0.00000084,-0.00000011,-0.00000207,-0.00000046,0.00000081,-0.
 00000267,-0.00000056,0.00000067,-0.00000225,-0.00000016,0.00000126,-0.
 00000265,-0.00000073,0.00000069,-0.00000314,-0.00000042,0.00000084,-0.
 00000257,-0.00000037,0.00000019,-0.00000172,-0.00000103,0.,-0.00000265
 ,-0.00000026,0.00000019,-0.00000102,-0.00000109,0.00000005,-0.00000300
 \\\@


 Boundary, n.  In political geography, an imaginary
 line between two nations, separating the imaginary
 rights of one from the imaginary rights of another.
                               -- Ambrose Bierce
 Job cpu time:       0 days  1 hours  7 minutes 56.4 seconds.
 File lengths (MBytes):  RWF=    492 Int=      0 D2E=      0 Chk=      9 Scr=      1
 Normal termination of Gaussian 09 at Tue Apr  6 02:31:41 2021.
