 Entering Gaussian System, Link 0=g09
 Initial command:
 /opt/software/gaussian/g09.e01/l1.exe "/localscratch/enas93.66158452.0/Gau-196628.inp" -scrdir="/localscratch/enas93.66158452.0/"
 Entering Link 1 = /opt/software/gaussian/g09.e01/l1.exe PID=    196629.
  
 Copyright (c) 1988,1990,1992,1993,1995,1998,2003,2009,2015,
            Gaussian, Inc.  All Rights Reserved.
  
 This is part of the Gaussian(R) 09 program.  It is based on
 the Gaussian(R) 03 system (copyright 2003, Gaussian, Inc.),
 the Gaussian(R) 98 system (copyright 1998, Gaussian, Inc.),
 the Gaussian(R) 94 system (copyright 1995, Gaussian, Inc.),
 the Gaussian 92(TM) system (copyright 1992, Gaussian, Inc.),
 the Gaussian 90(TM) system (copyright 1990, Gaussian, Inc.),
 the Gaussian 88(TM) system (copyright 1988, Gaussian, Inc.),
 the Gaussian 86(TM) system (copyright 1986, Carnegie Mellon
 University), and the Gaussian 82(TM) system (copyright 1983,
 Carnegie Mellon University). Gaussian is a federally registered
 trademark of Gaussian, Inc.
  
 This software contains proprietary and confidential information,
 including trade secrets, belonging to Gaussian, Inc.
  
 This software is provided under written license and may be
 used, copied, transmitted, or stored only in accord with that
 written license.
  
 The following legend is applicable only to US Government
 contracts under FAR:
  
                    RESTRICTED RIGHTS LEGEND
  
 Use, reproduction and disclosure by the US Government is
 subject to restrictions as set forth in subparagraphs (a)
 and (c) of the Commercial Computer Software - Restricted
 Rights clause in FAR 52.227-19.
  
 Gaussian, Inc.
 340 Quinnipiac St., Bldg. 40, Wallingford CT 06492
  
  
 ---------------------------------------------------------------
 Warning -- This program may not be used in any manner that
 competes with the business of Gaussian, Inc. or will provide
 assistance to any competitor of Gaussian, Inc.  The licensee
 of this program is prohibited from giving any competitor of
 Gaussian, Inc. access to this program.  By using this program,
 the user acknowledges that Gaussian, Inc. is engaged in the
 business of creating and licensing software in the field of
 computational chemistry and represents and warrants to the
 licensee that it is not a competitor of Gaussian, Inc. and that
 it will not use this program in any manner prohibited above.
 ---------------------------------------------------------------
  

 Cite this work as:
 Gaussian 09, Revision E.01,
 M. J. Frisch, G. W. Trucks, H. B. Schlegel, G. E. Scuseria, 
 M. A. Robb, J. R. Cheeseman, G. Scalmani, V. Barone, B. Mennucci, 
 G. A. Petersson, H. Nakatsuji, M. Caricato, X. Li, H. P. Hratchian, 
 A. F. Izmaylov, J. Bloino, G. Zheng, J. L. Sonnenberg, M. Hada, 
 M. Ehara, K. Toyota, R. Fukuda, J. Hasegawa, M. Ishida, T. Nakajima, 
 Y. Honda, O. Kitao, H. Nakai, T. Vreven, J. A. Montgomery, Jr., 
 J. E. Peralta, F. Ogliaro, M. Bearpark, J. J. Heyd, E. Brothers, 
 K. N. Kudin, V. N. Staroverov, T. Keith, R. Kobayashi, J. Normand, 
 K. Raghavachari, A. Rendell, J. C. Burant, S. S. Iyengar, J. Tomasi, 
 M. Cossi, N. Rega, J. M. Millam, M. Klene, J. E. Knox, J. B. Cross, 
 V. Bakken, C. Adamo, J. Jaramillo, R. Gomperts, R. E. Stratmann, 
 O. Yazyev, A. J. Austin, R. Cammi, C. Pomelli, J. W. Ochterski, 
 R. L. Martin, K. Morokuma, V. G. Zakrzewski, G. A. Voth, 
 P. Salvador, J. J. Dannenberg, S. Dapprich, A. D. Daniels, 
 O. Farkas, J. B. Foresman, J. V. Ortiz, J. Cioslowski, 
 and D. J. Fox, Gaussian, Inc., Wallingford CT, 2013.
 
 ******************************************
 Gaussian 09:  EM64L-G09RevE.01 30-Nov-2015
                 9-Apr-2021 
 ******************************************
 %nprocshared=32
 Will use up to   32 processors via shared memory.
 %mem=20GB
 ----------------------------------------------------------------------
 # opt=(calcall,tight,ts,modredundant,noeigentest) freq b3lyp/6-31g(d) 
 nosymm
 ----------------------------------------------------------------------
 1/5=1,7=10,10=4,11=1,14=-1,18=120,26=3,38=1/1,3;
 2/9=110,12=2,15=1,17=6,18=5,40=1/2;
 3/5=1,6=6,7=1,11=2,16=1,25=1,30=1,71=2,74=-5,140=1/1,2,3;
 4//1;
 5/5=2,38=5/2;
 8/6=4,10=90,11=11/1;
 11/6=1,8=1,9=11,15=111,16=1,31=1/1,2,10;
 10/6=1,31=1/2;
 6/7=2,8=2,9=2,10=2,18=1,28=1/1;
 7/10=1,25=1,30=1/1,2,3,16;
 1/5=1,7=10,10=4,11=1,14=-1,18=20,26=3/3(3);
 2/9=110,15=1/2;
 7/8=1,9=1,25=1,30=1,44=-1/16;
 99//99;
 2/9=110,15=1/2;
 3/5=1,6=6,7=1,11=2,16=1,25=1,30=1,71=2,74=-5,140=1/1,2,3;
 4/5=5,16=3,69=1/1;
 5/5=2,38=5/2;
 8/6=4,10=90,11=11/1;
 11/6=1,8=1,9=11,15=111,16=1,31=1/1,2,10;
 10/6=1,31=1/2;
 7/10=1,25=1,30=1/1,2,3,16;
 1/5=1,7=10,10=4,11=1,14=-1,18=20,26=3/3(-8);
 2/9=110,15=1/2;
 6/7=2,8=2,9=2,10=2,18=1,19=2,28=1/1;
 7/8=1,9=1,25=1,30=1,44=-1/16;
 99//99;
 -------------------
 Title Card Required
 -------------------
 Symbolic Z-matrix:
 Charge =  0 Multiplicity = 1
 C                    -2.27812  -3.78042  -0.88325 
 O                    -2.38181  -3.44036   0.31694 
 O                    -3.25035  -4.60635  -1.38295 
 O                    -1.39786  -3.44893  -1.71524 
 H                    -3.84649  -4.76344  -0.6361 
 C                     1.4352    0.39313   0.17238 
 C                     3.01397  -1.90177  -0.05074 
 C                     3.55308  -0.73506   0.36537 
 N                     2.79411   0.38405   0.47924 
 H                     3.60789  -2.80085  -0.14595 
 H                     4.59973  -0.62752   0.62669 
 O                     0.78342   1.43403   0.2963 
 N                     0.888    -0.7749   -0.25689 
 C                     1.6059   -1.90409  -0.37006 
 N                     1.00843  -3.0093   -0.77798 
 H                    -0.0158   -3.09276  -1.09301 
 H                     1.56862  -3.84622  -0.85631 
 H                     3.19746   1.26856   0.7935 
 S                    -3.40982  -0.81142  -0.36773 
 C                    -3.73879   0.95708  -0.57675 
 H                    -4.77885   1.17913  -0.32933 
 H                    -3.07381   1.55369   0.05445 
 H                    -3.56155   1.20555  -1.62479 
 C                    -3.64018  -0.94945   1.41795 
 H                    -2.9451   -0.28472   1.93888 
 H                    -4.66961  -0.69829   1.68054 
 H                    -3.42115  -1.99271   1.64993 
 C                    -1.17309  -0.78917  -0.3619 
 H                    -1.18672  -1.6674    0.27574 
 H                    -1.10325  -0.95922  -1.42668 
 H                    -1.11336   0.21796   0.03258 
 N                     0.58609   3.94961   1.99287 
 H                     1.30559   4.04179   2.71046 
 C                     1.18375   4.31185   0.72367 
 H                     0.45093   4.09675  -0.06375 
 C                     1.54193   5.79969   0.70458 
 C                     2.44788   3.51076   0.43048 
 H                     2.28375   6.01137   1.48146 
 H                     1.96159   6.10258  -0.25949 
 H                     0.64557   6.38777   0.91018 
 O                     3.21085   3.13983   1.2943 
 O                     2.74362   3.26578  -0.85719 
 H                     0.36999   2.95365   1.94571 
 H                     1.96718   3.44599  -1.40933 
 
 Add virtual bond connecting atoms H16        and O4         Dist= 2.94D+00.
 Add virtual bond connecting atoms O41        and H18        Dist= 3.66D+00.
 Add virtual bond connecting atoms C28        and N13        Dist= 3.90D+00.
 Add virtual bond connecting atoms H29        and O2         Dist= 4.04D+00.
 Add virtual bond connecting atoms S19        and C28        Dist= 4.23D+00.
 Add virtual bond connecting atoms H22        and H31        Dist= 4.48D+00.
 Add virtual bond connecting atoms H27        and O2         Dist= 4.21D+00.
 The following ModRedundant input section has been read:
 A      13      28      19 F                                                   
 X      28 F                                                                   
 X      16 F                                                                   
 

 GradGradGradGradGradGradGradGradGradGradGradGradGradGradGradGradGradGrad
 Berny optimization.
 Initialization pass.
                           ----------------------------
                           !    Initial Parameters    !
                           ! (Angstroms and Degrees)  !
 --------------------------                            --------------------------
 ! Name  Definition              Value          Derivative Info.                !
 --------------------------------------------------------------------------------
 ! X16   R(16,-1)               -0.0158         frozen, calculate D2E/DX2 analyt!
 ! Y16   R(16,-2)               -3.0928         frozen, calculate D2E/DX2 analyt!
 ! Z16   R(16,-3)               -1.093          frozen, calculate D2E/DX2 analyt!
 ! X28   R(28,-1)               -1.1731         frozen, calculate D2E/DX2 analyt!
 ! Y28   R(28,-2)               -0.7892         frozen, calculate D2E/DX2 analyt!
 ! Z28   R(28,-3)               -0.3619         frozen, calculate D2E/DX2 analyt!
 ! R1    R(1,2)                  1.2517         calculate D2E/DX2 analytically  !
 ! R2    R(1,3)                  1.3701         calculate D2E/DX2 analytically  !
 ! R3    R(1,4)                  1.2558         calculate D2E/DX2 analytically  !
 ! R4    R(2,27)                 2.2255         calculate D2E/DX2 analytically  !
 ! R5    R(2,29)                 2.1385         calculate D2E/DX2 analytically  !
 ! R6    R(3,5)                  0.9684         calculate D2E/DX2 analytically  !
 ! R7    R(4,16)                 1.557          calculate D2E/DX2 analytically  !
 ! R8    R(6,9)                  1.3931         calculate D2E/DX2 analytically  !
 ! R9    R(6,12)                 1.2344         calculate D2E/DX2 analytically  !
 ! R10   R(6,13)                 1.3594         calculate D2E/DX2 analytically  !
 ! R11   R(7,8)                  1.3509         calculate D2E/DX2 analytically  !
 ! R12   R(7,10)                 1.0817         calculate D2E/DX2 analytically  !
 ! R13   R(7,14)                 1.4438         calculate D2E/DX2 analytically  !
 ! R14   R(8,9)                  1.357          calculate D2E/DX2 analytically  !
 ! R15   R(8,11)                 1.0841         calculate D2E/DX2 analytically  !
 ! R16   R(9,18)                 1.0217         calculate D2E/DX2 analytically  !
 ! R17   R(13,14)                1.3429         calculate D2E/DX2 analytically  !
 ! R18   R(13,28)                2.0638         calculate D2E/DX2 analytically  !
 ! R19   R(14,15)                1.3209         calculate D2E/DX2 analytically  !
 ! R20   R(15,16)                1.0748         calculate D2E/DX2 analytically  !
 ! R21   R(15,17)                1.0101         calculate D2E/DX2 analytically  !
 ! R22   R(18,41)                1.9372         calculate D2E/DX2 analytically  !
 ! R23   R(19,20)                1.8109         calculate D2E/DX2 analytically  !
 ! R24   R(19,24)                1.8058         calculate D2E/DX2 analytically  !
 ! R25   R(19,28)                2.2369         calculate D2E/DX2 analytically  !
 ! R26   R(20,21)                1.0919         calculate D2E/DX2 analytically  !
 ! R27   R(20,22)                1.0939         calculate D2E/DX2 analytically  !
 ! R28   R(20,23)                1.0916         calculate D2E/DX2 analytically  !
 ! R29   R(22,31)                2.3723         calculate D2E/DX2 analytically  !
 ! R30   R(24,25)                1.0938         calculate D2E/DX2 analytically  !
 ! R31   R(24,26)                1.0917         calculate D2E/DX2 analytically  !
 ! R32   R(24,27)                1.091          calculate D2E/DX2 analytically  !
 ! R33   R(28,29)                1.0854         calculate D2E/DX2 analytically  !
 ! R34   R(28,30)                1.0805         calculate D2E/DX2 analytically  !
 ! R35   R(28,31)                1.0833         calculate D2E/DX2 analytically  !
 ! R36   R(32,33)                1.0203         calculate D2E/DX2 analytically  !
 ! R37   R(32,34)                1.4489         calculate D2E/DX2 analytically  !
 ! R38   R(32,43)                1.0202         calculate D2E/DX2 analytically  !
 ! R39   R(34,35)                1.097          calculate D2E/DX2 analytically  !
 ! R40   R(34,36)                1.5305         calculate D2E/DX2 analytically  !
 ! R41   R(34,37)                1.525          calculate D2E/DX2 analytically  !
 ! R42   R(36,38)                1.0948         calculate D2E/DX2 analytically  !
 ! R43   R(36,39)                1.0942         calculate D2E/DX2 analytically  !
 ! R44   R(36,40)                1.0916         calculate D2E/DX2 analytically  !
 ! R45   R(37,41)                1.2107         calculate D2E/DX2 analytically  !
 ! R46   R(37,42)                1.3437         calculate D2E/DX2 analytically  !
 ! R47   R(42,44)                0.9696         calculate D2E/DX2 analytically  !
 ! A1    A(2,1,3)              117.0454         calculate D2E/DX2 analytically  !
 ! A2    A(2,1,4)              128.4332         calculate D2E/DX2 analytically  !
 ! A3    A(3,1,4)              114.5141         calculate D2E/DX2 analytically  !
 ! A4    A(1,2,27)             142.1576         calculate D2E/DX2 analytically  !
 ! A5    A(1,2,29)              99.234          calculate D2E/DX2 analytically  !
 ! A6    A(27,2,29)             74.5281         calculate D2E/DX2 analytically  !
 ! A7    A(1,3,5)              104.6756         calculate D2E/DX2 analytically  !
 ! A8    A(1,4,16)             114.6983         calculate D2E/DX2 analytically  !
 ! A9    A(9,6,12)             119.8971         calculate D2E/DX2 analytically  !
 ! A10   A(9,6,13)             117.1671         calculate D2E/DX2 analytically  !
 ! A11   A(12,6,13)            122.9358         calculate D2E/DX2 analytically  !
 ! A12   A(8,7,10)             121.7228         calculate D2E/DX2 analytically  !
 ! A13   A(8,7,14)             117.3032         calculate D2E/DX2 analytically  !
 ! A14   A(10,7,14)            120.9738         calculate D2E/DX2 analytically  !
 ! A15   A(7,8,9)              120.9897         calculate D2E/DX2 analytically  !
 ! A16   A(7,8,11)             123.0375         calculate D2E/DX2 analytically  !
 ! A17   A(9,8,11)             115.9728         calculate D2E/DX2 analytically  !
 ! A18   A(6,9,8)              122.1715         calculate D2E/DX2 analytically  !
 ! A19   A(6,9,18)             116.5638         calculate D2E/DX2 analytically  !
 ! A20   A(8,9,18)             121.2643         calculate D2E/DX2 analytically  !
 ! A21   A(6,13,14)            122.271          calculate D2E/DX2 analytically  !
 ! A22   A(6,13,28)            115.0881         calculate D2E/DX2 analytically  !
 ! A23   A(14,13,28)           121.5872         calculate D2E/DX2 analytically  !
 ! A24   A(7,14,13)            120.0909         calculate D2E/DX2 analytically  !
 ! A25   A(7,14,15)            120.7137         calculate D2E/DX2 analytically  !
 ! A26   A(13,14,15)           119.1952         calculate D2E/DX2 analytically  !
 ! A27   A(14,15,16)           125.9085         calculate D2E/DX2 analytically  !
 ! A28   A(14,15,17)           117.7958         calculate D2E/DX2 analytically  !
 ! A29   A(16,15,17)           116.1936         calculate D2E/DX2 analytically  !
 ! A30   A(9,18,41)            156.7147         calculate D2E/DX2 analytically  !
 ! A31   A(20,19,24)            99.5328         calculate D2E/DX2 analytically  !
 ! A32   A(20,19,28)            99.9181         calculate D2E/DX2 analytically  !
 ! A33   A(24,19,28)            97.224          calculate D2E/DX2 analytically  !
 ! A34   A(19,20,21)           110.2111         calculate D2E/DX2 analytically  !
 ! A35   A(19,20,22)           110.8295         calculate D2E/DX2 analytically  !
 ! A36   A(19,20,23)           107.6748         calculate D2E/DX2 analytically  !
 ! A37   A(21,20,22)           109.7176         calculate D2E/DX2 analytically  !
 ! A38   A(21,20,23)           109.0219         calculate D2E/DX2 analytically  !
 ! A39   A(22,20,23)           109.3393         calculate D2E/DX2 analytically  !
 ! A40   A(20,22,31)           100.9506         calculate D2E/DX2 analytically  !
 ! A41   A(19,24,25)           110.0871         calculate D2E/DX2 analytically  !
 ! A42   A(19,24,26)           109.9118         calculate D2E/DX2 analytically  !
 ! A43   A(19,24,27)           104.9373         calculate D2E/DX2 analytically  !
 ! A44   A(25,24,26)           110.1736         calculate D2E/DX2 analytically  !
 ! A45   A(25,24,27)           110.6282         calculate D2E/DX2 analytically  !
 ! A46   A(26,24,27)           110.9885         calculate D2E/DX2 analytically  !
 ! A47   A(2,27,24)            126.0469         calculate D2E/DX2 analytically  !
 ! A48   A(13,28,19)           177.2272         frozen, calculate D2E/DX2 analyt!
 ! A49   A(13,28,29)            89.3269         calculate D2E/DX2 analytically  !
 ! A50   A(13,28,30)            89.237          calculate D2E/DX2 analytically  !
 ! A51   A(13,28,31)            85.4105         calculate D2E/DX2 analytically  !
 ! A52   A(19,28,29)            88.9066         calculate D2E/DX2 analytically  !
 ! A53   A(19,28,30)            93.4682         calculate D2E/DX2 analytically  !
 ! A54   A(19,28,31)            93.7453         calculate D2E/DX2 analytically  !
 ! A55   A(29,28,30)           116.8967         calculate D2E/DX2 analytically  !
 ! A56   A(29,28,31)           122.6173         calculate D2E/DX2 analytically  !
 ! A57   A(30,28,31)           120.1057         calculate D2E/DX2 analytically  !
 ! A58   A(2,29,28)            133.5639         calculate D2E/DX2 analytically  !
 ! A59   A(22,31,28)           118.7678         calculate D2E/DX2 analytically  !
 ! A60   A(33,32,34)           107.6137         calculate D2E/DX2 analytically  !
 ! A61   A(33,32,43)           105.6686         calculate D2E/DX2 analytically  !
 ! A62   A(34,32,43)           106.9145         calculate D2E/DX2 analytically  !
 ! A63   A(32,34,35)           107.7107         calculate D2E/DX2 analytically  !
 ! A64   A(32,34,36)           110.5188         calculate D2E/DX2 analytically  !
 ! A65   A(32,34,37)           112.2716         calculate D2E/DX2 analytically  !
 ! A66   A(35,34,36)           109.7565         calculate D2E/DX2 analytically  !
 ! A67   A(35,34,37)           108.2253         calculate D2E/DX2 analytically  !
 ! A68   A(36,34,37)           108.3162         calculate D2E/DX2 analytically  !
 ! A69   A(34,36,38)           109.7362         calculate D2E/DX2 analytically  !
 ! A70   A(34,36,39)           111.7068         calculate D2E/DX2 analytically  !
 ! A71   A(34,36,40)           109.2202         calculate D2E/DX2 analytically  !
 ! A72   A(38,36,39)           108.1688         calculate D2E/DX2 analytically  !
 ! A73   A(38,36,40)           108.5761         calculate D2E/DX2 analytically  !
 ! A74   A(39,36,40)           109.3749         calculate D2E/DX2 analytically  !
 ! A75   A(34,37,41)           123.1019         calculate D2E/DX2 analytically  !
 ! A76   A(34,37,42)           117.5442         calculate D2E/DX2 analytically  !
 ! A77   A(41,37,42)           119.2852         calculate D2E/DX2 analytically  !
 ! A78   A(18,41,37)            96.1507         calculate D2E/DX2 analytically  !
 ! A79   A(37,42,44)           109.6063         calculate D2E/DX2 analytically  !
 ! A80   L(4,16,15,25,-1)      190.9552         calculate D2E/DX2 analytically  !
 ! A81   L(4,16,15,25,-2)      177.3475         calculate D2E/DX2 analytically  !
 ! D1    D(3,1,2,27)           -81.5933         calculate D2E/DX2 analytically  !
 ! D2    D(3,1,2,29)          -158.2214         calculate D2E/DX2 analytically  !
 ! D3    D(4,1,2,27)            97.3663         calculate D2E/DX2 analytically  !
 ! D4    D(4,1,2,29)            20.7382         calculate D2E/DX2 analytically  !
 ! D5    D(2,1,3,5)             -0.5078         calculate D2E/DX2 analytically  !
 ! D6    D(4,1,3,5)           -179.6121         calculate D2E/DX2 analytically  !
 ! D7    D(2,1,4,16)            27.4517         calculate D2E/DX2 analytically  !
 ! D8    D(3,1,4,16)          -153.5667         calculate D2E/DX2 analytically  !
 ! D9    D(1,2,27,24)          -37.7585         calculate D2E/DX2 analytically  !
 ! D10   D(29,2,27,24)          47.3713         calculate D2E/DX2 analytically  !
 ! D11   D(1,2,29,28)           50.4832         calculate D2E/DX2 analytically  !
 ! D12   D(27,2,29,28)         -91.2516         calculate D2E/DX2 analytically  !
 ! D13   D(1,4,15,14)          -92.8142         calculate D2E/DX2 analytically  !
 ! D14   D(1,4,15,17)           94.572          calculate D2E/DX2 analytically  !
 ! D15   D(12,6,9,8)           179.7115         calculate D2E/DX2 analytically  !
 ! D16   D(12,6,9,18)           -0.525          calculate D2E/DX2 analytically  !
 ! D17   D(13,6,9,8)            -0.2552         calculate D2E/DX2 analytically  !
 ! D18   D(13,6,9,18)          179.5083         calculate D2E/DX2 analytically  !
 ! D19   D(9,6,13,14)            0.8624         calculate D2E/DX2 analytically  !
 ! D20   D(9,6,13,28)          169.2857         calculate D2E/DX2 analytically  !
 ! D21   D(12,6,13,14)        -179.1032         calculate D2E/DX2 analytically  !
 ! D22   D(12,6,13,28)         -10.6799         calculate D2E/DX2 analytically  !
 ! D23   D(10,7,8,9)           179.9884         calculate D2E/DX2 analytically  !
 ! D24   D(10,7,8,11)           -0.0171         calculate D2E/DX2 analytically  !
 ! D25   D(14,7,8,9)             0.1677         calculate D2E/DX2 analytically  !
 ! D26   D(14,7,8,11)         -179.8378         calculate D2E/DX2 analytically  !
 ! D27   D(8,7,14,13)            0.4174         calculate D2E/DX2 analytically  !
 ! D28   D(8,7,14,15)         -179.7179         calculate D2E/DX2 analytically  !
 ! D29   D(10,7,14,13)        -179.4047         calculate D2E/DX2 analytically  !
 ! D30   D(10,7,14,15)           0.46           calculate D2E/DX2 analytically  !
 ! D31   D(7,8,9,6)             -0.2475         calculate D2E/DX2 analytically  !
 ! D32   D(7,8,9,18)           180.0            calculate D2E/DX2 analytically  !
 ! D33   D(11,8,9,6)           179.7577         calculate D2E/DX2 analytically  !
 ! D34   D(11,8,9,18)            0.0051         calculate D2E/DX2 analytically  !
 ! D35   D(6,9,18,41)            1.9147         calculate D2E/DX2 analytically  !
 ! D36   D(8,9,18,41)         -178.3195         calculate D2E/DX2 analytically  !
 ! D37   D(6,13,14,7)           -0.9565         calculate D2E/DX2 analytically  !
 ! D38   D(6,13,14,15)         179.1767         calculate D2E/DX2 analytically  !
 ! D39   D(28,13,14,7)        -168.6373         calculate D2E/DX2 analytically  !
 ! D40   D(28,13,14,15)         11.4959         calculate D2E/DX2 analytically  !
 ! D41   D(6,13,28,29)        -125.0253         calculate D2E/DX2 analytically  !
 ! D42   D(6,13,28,30)         118.0633         calculate D2E/DX2 analytically  !
 ! D43   D(6,13,28,31)          -2.2232         calculate D2E/DX2 analytically  !
 ! D44   D(14,13,28,29)         43.4849         calculate D2E/DX2 analytically  !
 ! D45   D(14,13,28,30)        -73.4264         calculate D2E/DX2 analytically  !
 ! D46   D(14,13,28,31)        166.287          calculate D2E/DX2 analytically  !
 ! D47   D(7,14,15,16)        -176.0912         calculate D2E/DX2 analytically  !
 ! D48   D(7,14,15,17)           0.0808         calculate D2E/DX2 analytically  !
 ! D49   D(13,14,15,16)          3.7748         calculate D2E/DX2 analytically  !
 ! D50   D(13,14,15,17)        179.9468         calculate D2E/DX2 analytically  !
 ! D51   D(9,18,41,37)         -39.9223         calculate D2E/DX2 analytically  !
 ! D52   D(24,19,20,21)        -65.2633         calculate D2E/DX2 analytically  !
 ! D53   D(24,19,20,22)         56.3864         calculate D2E/DX2 analytically  !
 ! D54   D(24,19,20,23)        175.9314         calculate D2E/DX2 analytically  !
 ! D55   D(28,19,20,21)       -164.401          calculate D2E/DX2 analytically  !
 ! D56   D(28,19,20,22)        -42.7513         calculate D2E/DX2 analytically  !
 ! D57   D(28,19,20,23)         76.7937         calculate D2E/DX2 analytically  !
 ! D58   D(20,19,24,25)        -58.7889         calculate D2E/DX2 analytically  !
 ! D59   D(20,19,24,26)         62.7458         calculate D2E/DX2 analytically  !
 ! D60   D(20,19,24,27)       -177.8537         calculate D2E/DX2 analytically  !
 ! D61   D(28,19,24,25)         42.5922         calculate D2E/DX2 analytically  !
 ! D62   D(28,19,24,26)        164.1269         calculate D2E/DX2 analytically  !
 ! D63   D(28,19,24,27)        -76.4725         calculate D2E/DX2 analytically  !
 ! D64   D(20,19,28,29)        150.7133         calculate D2E/DX2 analytically  !
 ! D65   D(20,19,28,30)        -92.4056         calculate D2E/DX2 analytically  !
 ! D66   D(20,19,28,31)         28.0959         calculate D2E/DX2 analytically  !
 ! D67   D(24,19,28,29)         49.6652         calculate D2E/DX2 analytically  !
 ! D68   D(24,19,28,30)        166.5463         calculate D2E/DX2 analytically  !
 ! D69   D(24,19,28,31)        -72.9522         calculate D2E/DX2 analytically  !
 ! D70   D(19,20,22,31)         33.3576         calculate D2E/DX2 analytically  !
 ! D71   D(21,20,22,31)        155.2965         calculate D2E/DX2 analytically  !
 ! D72   D(23,20,22,31)        -85.1839         calculate D2E/DX2 analytically  !
 ! D73   D(20,22,31,28)        -11.8957         calculate D2E/DX2 analytically  !
 ! D74   D(19,24,27,2)          15.2126         calculate D2E/DX2 analytically  !
 ! D75   D(25,24,27,2)        -103.4882         calculate D2E/DX2 analytically  !
 ! D76   D(26,24,27,2)         133.89           calculate D2E/DX2 analytically  !
 ! D77   D(13,28,29,2)        -141.9987         calculate D2E/DX2 analytically  !
 ! D78   D(19,28,29,2)          40.1387         calculate D2E/DX2 analytically  !
 ! D79   D(30,28,29,2)         -53.1958         calculate D2E/DX2 analytically  !
 ! D80   D(31,28,29,2)         133.8858         calculate D2E/DX2 analytically  !
 ! D81   D(13,28,31,22)        169.6077         calculate D2E/DX2 analytically  !
 ! D82   D(19,28,31,22)        -13.0405         calculate D2E/DX2 analytically  !
 ! D83   D(29,28,31,22)       -104.1401         calculate D2E/DX2 analytically  !
 ! D84   D(30,28,31,22)         83.1615         calculate D2E/DX2 analytically  !
 ! D85   D(33,32,34,35)        173.2016         calculate D2E/DX2 analytically  !
 ! D86   D(33,32,34,36)        -66.9045         calculate D2E/DX2 analytically  !
 ! D87   D(33,32,34,37)         54.1517         calculate D2E/DX2 analytically  !
 ! D88   D(43,32,34,35)         60.0781         calculate D2E/DX2 analytically  !
 ! D89   D(43,32,34,36)        179.972          calculate D2E/DX2 analytically  !
 ! D90   D(43,32,34,37)        -58.9718         calculate D2E/DX2 analytically  !
 ! D91   D(32,34,36,38)         62.1272         calculate D2E/DX2 analytically  !
 ! D92   D(32,34,36,39)       -177.9138         calculate D2E/DX2 analytically  !
 ! D93   D(32,34,36,40)        -56.7872         calculate D2E/DX2 analytically  !
 ! D94   D(35,34,36,38)       -179.2166         calculate D2E/DX2 analytically  !
 ! D95   D(35,34,36,39)        -59.2576         calculate D2E/DX2 analytically  !
 ! D96   D(35,34,36,40)         61.8691         calculate D2E/DX2 analytically  !
 ! D97   D(37,34,36,38)        -61.2508         calculate D2E/DX2 analytically  !
 ! D98   D(37,34,36,39)         58.7082         calculate D2E/DX2 analytically  !
 ! D99   D(37,34,36,40)        179.8349         calculate D2E/DX2 analytically  !
 ! D100  D(32,34,37,41)        -33.2059         calculate D2E/DX2 analytically  !
 ! D101  D(32,34,37,42)        149.834          calculate D2E/DX2 analytically  !
 ! D102  D(35,34,37,41)       -151.9534         calculate D2E/DX2 analytically  !
 ! D103  D(35,34,37,42)         31.0864         calculate D2E/DX2 analytically  !
 ! D104  D(36,34,37,41)         89.1082         calculate D2E/DX2 analytically  !
 ! D105  D(36,34,37,42)        -87.8519         calculate D2E/DX2 analytically  !
 ! D106  D(34,37,41,18)        126.2829         calculate D2E/DX2 analytically  !
 ! D107  D(42,37,41,18)        -56.8074         calculate D2E/DX2 analytically  !
 ! D108  D(34,37,42,44)        -14.9185         calculate D2E/DX2 analytically  !
 ! D109  D(41,37,42,44)        168.001          calculate D2E/DX2 analytically  !
 --------------------------------------------------------------------------------
 Trust Radius=3.00D-01 FncErr=1.00D-07 GrdErr=1.00D-06
 Number of steps in this run=    253 maximum allowed number of steps=    264.
 Search for a saddle point of order  1.
 GradGradGradGradGradGradGradGradGradGradGradGradGradGradGradGradGradGrad

                          Input orientation:                          
 ---------------------------------------------------------------------
 Center     Atomic      Atomic             Coordinates (Angstroms)
 Number     Number       Type             X           Y           Z
 ---------------------------------------------------------------------
      1          6           0       -2.278123   -3.780418   -0.883253
      2          8           0       -2.381808   -3.440359    0.316940
      3          8           0       -3.250348   -4.606345   -1.382946
      4          8           0       -1.397857   -3.448934   -1.715243
      5          1           0       -3.846489   -4.763439   -0.636102
      6          6           0        1.435204    0.393132    0.172382
      7          6           0        3.013967   -1.901770   -0.050737
      8          6           0        3.553082   -0.735062    0.365373
      9          7           0        2.794108    0.384048    0.479238
     10          1           0        3.607892   -2.800853   -0.145950
     11          1           0        4.599732   -0.627524    0.626688
     12          8           0        0.783415    1.434028    0.296303
     13          7           0        0.887998   -0.774897   -0.256889
     14          6           0        1.605895   -1.904091   -0.370062
     15          7           0        1.008429   -3.009304   -0.777977
     16          1           0       -0.015803   -3.092761   -1.093011
     17          1           0        1.568623   -3.846219   -0.856306
     18          1           0        3.197455    1.268560    0.793502
     19         16           0       -3.409818   -0.811417   -0.367725
     20          6           0       -3.738794    0.957079   -0.576749
     21          1           0       -4.778851    1.179132   -0.329329
     22          1           0       -3.073808    1.553687    0.054453
     23          1           0       -3.561553    1.205550   -1.624793
     24          6           0       -3.640178   -0.949445    1.417946
     25          1           0       -2.945099   -0.284720    1.938880
     26          1           0       -4.669606   -0.698286    1.680536
     27          1           0       -3.421150   -1.992705    1.649929
     28          6           0       -1.173085   -0.789171   -0.361900
     29          1           0       -1.186723   -1.667404    0.275741
     30          1           0       -1.103250   -0.959224   -1.426683
     31          1           0       -1.113363    0.217964    0.032582
     32          7           0        0.586091    3.949611    1.992874
     33          1           0        1.305594    4.041795    2.710456
     34          6           0        1.183745    4.311852    0.723668
     35          1           0        0.450925    4.096748   -0.063753
     36          6           0        1.541934    5.799688    0.704576
     37          6           0        2.447884    3.510762    0.430484
     38          1           0        2.283747    6.011374    1.481458
     39          1           0        1.961588    6.102581   -0.259493
     40          1           0        0.645571    6.387769    0.910176
     41          8           0        3.210849    3.139832    1.294298
     42          8           0        2.743620    3.265781   -0.857190
     43          1           0        0.369988    2.953649    1.945712
     44          1           0        1.967175    3.445989   -1.409327
 ---------------------------------------------------------------------
                    Distance matrix (angstroms):
                    1          2          3          4          5
     1  C    0.000000
     2  O    1.251740   0.000000
     3  O    1.370062   2.236850   0.000000
     4  O    1.255770   2.257875   2.209467   0.000000
     5  H    1.867401   2.191830   0.968421   2.981320   0.000000
     6  C    5.685216   5.411666   7.026252   5.133306   7.425642
     7  C    5.677025   5.622885   6.952061   4.962710   7.456384
     8  C    6.695985   6.522568   8.020605   6.017131   8.484364
     9  N    6.702737   6.437588   8.056500   6.089341   8.475738
    10  H    6.012349   6.041502   7.198987   5.285850   7.723975
    11  H    7.715280   7.533252   9.027370   7.029656   9.488892
    12  O    6.160748   5.811946   7.455014   5.713806   7.791918
    13  N    4.410194   4.257417   5.750992   3.808202   6.202228
    14  C    4.343911   4.328264   5.649001   3.635736   6.162397
    15  N    3.377443   3.588643   4.588432   2.619533   5.164044
    16  H    2.373808   2.776106   3.582915   1.556954   4.204056
    17  H    3.847403   4.140910   4.906895   3.113778   5.496655
    18  H    7.634503   7.316366   8.990306   7.047371   9.383279
    19  S    3.218924   2.904635   3.931613   3.580543   3.985121
    20  C    4.967030   4.688022   5.642714   5.117529   5.721839
    21  H    5.581900   5.244347   6.076033   5.896683   6.023085
    22  H    5.474037   5.048590   6.327976   5.564787   6.401561
    23  H    5.201630   5.171711   5.825244   5.133613   6.057023
    24  C    3.894242   3.000060   4.622757   4.592638   4.336845
    25  H    4.541937   3.592498   5.459318   5.075315   5.244231
    26  H    4.668163   3.822614   5.164508   5.459095   4.750769
    27  H    3.304458   2.225487   4.007321   4.187923   3.617156
    28  C    3.231173   2.991761   4.464121   2.992724   4.797612
    29  H    2.645609   2.138526   3.955650   2.680008   4.182254
    30  H    3.103994   3.291043   4.232427   2.523632   4.756304
    31  H    4.264092   3.882414   5.463001   4.072097   5.721144
    32  N    8.730932   8.138110   9.965882   8.510267  10.123069
    33  H    9.324419   8.678046  10.597305   9.110789  10.736645
    34  C    8.947154   8.542562  10.180041   8.534797  10.464852
    35  H    8.376695   8.060849   9.549006   7.942464   9.863988
    36  C   10.435155  10.046118  11.645138  10.001745  11.933657
    37  C    8.787625   8.465040  10.081954   8.235972  10.450796
    38  H   11.058106  10.604658  12.311254  10.642863  12.576186
    39  H   10.772089  10.500717  11.962756  10.229199  12.326637
    40  H   10.731095  10.300925  11.887268  10.384082  12.121016
    41  O    9.097274   8.690912  10.436377   8.585415  10.770058
    42  O    8.652601   8.521790   9.908302   7.935709  10.389744
    43  H    7.769375   7.149029   9.018886   7.584256   9.165036
    44  H    8.397635   8.325589   9.594964   7.678345  10.089166
                    6          7          8          9         10
     6  C    0.000000
     7  C    2.794432   0.000000
     8  C    2.407379   1.350926   0.000000
     9  N    1.393149   2.356730   1.356987   0.000000
    10  H    3.876009   1.081741   2.128837   3.346147   0.000000
    11  H    3.355945   2.144122   1.084125   2.074921   2.510792
    12  O    1.234362   4.027822   3.518633   2.275700   5.109547
    13  N    1.359412   2.414971   2.737055   2.349104   3.393321
    14  C    2.366562   1.443828   2.387264   2.714542   2.205085
    15  N    3.558355   2.403683   3.599262   4.035353   2.683304
    16  H    3.982222   3.418231   4.519134   4.738752   3.756767
    17  H    4.364413   2.553202   3.887142   4.602244   2.399169
    18  H    2.063418   3.285940   2.079487   1.021671   4.196564
    19  S    5.021642   6.523371   7.001803   6.374573   7.297622
    20  C    5.258278   7.351836   7.544693   6.642461   8.263258
    21  H    6.283629   8.384365   8.577171   7.657392   9.285008
    22  H    4.657465   7.000875   7.017885   5.998411   7.977925
    23  H    5.371912   7.441139   7.638375   6.745090   8.345009
    24  C    5.395688   6.880523   7.273023   6.637726   7.642513
    25  H    4.771483   6.487210   6.701126   5.959556   7.322509
    26  H    6.382353   7.967620   8.327281   7.636857   8.733488
    27  H    5.608880   6.656671   7.202198   6.756397   7.299707
    28  C    2.913155   4.343513   4.782103   4.221679   5.191458
    29  H    3.336314   4.219871   4.831464   4.482955   4.944781
    30  H    3.290839   4.442195   4.994311   4.541620   5.217924
    31  H    2.558402   4.640589   4.774381   3.936422   5.606726
    32  N    4.084572   6.656545   5.779096   4.458663   7.699001
    33  H    4.446500   6.772643   5.776589   4.535760   7.764114
    34  C    3.965289   6.523689   5.586902   4.252136   7.564608
    35  H    3.839445   6.523157   5.757944   4.423741   7.586178
    36  C    5.433734   7.877172   6.845636   5.563081   8.885994
    37  C    3.288123   5.463289   4.387793   3.146202   6.443165
    38  H    5.830810   8.093126   6.954945   5.738616   9.058541
    39  H    5.749905   8.075934   7.048168   5.825842   9.055073
    40  H    6.091267   8.674625   7.712662   6.391133   9.711927
    41  O    3.457741   5.221650   3.999354   2.903849   6.125659
    42  O    3.320253   5.237083   4.261060   3.176944   6.169026
    43  H    3.291752   5.878055   5.122123   3.824886   6.926281
    44  H    3.479186   5.616054   4.811013   3.691338   6.581118
                   11         12         13         14         15
    11  H    0.000000
    12  O    4.350106   0.000000
    13  N    3.818298   2.279541   0.000000
    14  C    3.403850   3.501936   1.342856   0.000000
    15  N    4.532485   4.576888   2.297523   1.320930   0.000000
    16  H    5.507987   4.802162   2.624586   2.136702   1.074831
    17  H    4.663356   5.461325   3.202432   2.002419   1.010138
    18  H    2.364179   2.470258   3.257703   3.735326   5.055838
    19  S    8.073138   4.802724   4.299400   5.133354   4.951759
    20  C    8.572645   4.630343   4.950682   6.065865   6.189411
    21  H    9.598739   5.603141   5.994719   7.090339   7.157995
    22  H    7.998022   3.866650   4.605990   5.834043   6.178874
    23  H    8.662326   4.756213   5.058837   6.160092   6.274299
    24  C    8.284071   5.148515   4.831140   5.624020   5.538469
    25  H    7.665757   4.421987   4.444582   5.353982   5.516797
    26  H    9.329321   6.016502   5.886123   6.711247   6.604935
    27  H    8.200323   5.590453   4.867008   5.418431   5.152608
    28  C    5.859083   3.033766   2.063806   2.994302   3.140241
    29  H    5.889616   3.674336   2.320502   2.876073   2.780236
    30  H    6.070450   3.500834   2.316779   3.057562   3.013774
    31  H    5.805796   2.268508   2.252779   3.472694   3.946424
    32  N    6.239066   3.040633   5.241522   6.394474   7.502165
    33  H    6.082432   3.591832   5.672746   6.703233   7.872450
    34  C    6.006314   2.936797   5.188832   6.325536   7.475627
    35  H    6.325192   2.707447   4.895024   6.118648   7.163582
    36  C    7.117953   4.449834   6.676617   7.778634   8.948795
    37  C    4.668443   2.664824   4.612223   5.538091   6.785549
    38  H    7.083035   4.960613   7.143069   8.157340   9.386379
    39  H    7.282818   4.846895   6.960769   8.015332   9.176262
    40  H    8.057921   4.993535   7.261170   8.444890   9.554397
    41  O    4.070340   3.130207   4.809046   5.548615   6.852507
    42  O    4.561236   2.920320   4.486733   5.315947   6.511056
    43  H    5.696960   2.280509   4.361404   5.521586   6.586569
    44  H    5.260154   2.891098   4.506508   5.462046   6.556570
                   16         17         18         19         20
    16  H    0.000000
    17  H    1.770349   0.000000
    18  H    5.736295   5.615686   0.000000
    19  S    4.153301   5.850949   7.023589   0.000000
    20  C    5.525250   7.163693   7.077158   1.810937   0.000000
    21  H    6.443517   8.113093   8.055446   2.416198   1.091899
    22  H    5.679573   7.179180   6.321094   2.425872   1.093875
    23  H    5.597376   7.240832   7.178879   2.381470   1.091581
    24  C    4.902530   6.379273   7.215449   1.805751   2.761045
    25  H    5.065396   6.393045   6.438598   2.411182   2.915546
    26  H    5.923171   7.433744   8.157571   2.407330   2.949912
    27  H    4.508906   5.883414   7.428004   2.338054   3.709477
    28  C    2.679618   4.136054   4.966974   2.236851   3.111015
    29  H    2.296993   3.690623   5.301790   2.467572   3.758685
    30  H    2.417821   3.974792   5.328068   2.542340   3.367595
    31  H    3.665037   4.949824   4.501767   2.548250   2.794721
    32  N    7.712326   8.358119   3.930108   6.648842   5.853447
    33  H    8.192334   8.660932   3.865835   7.433974   6.765134
    34  C    7.718000   8.318568   3.649867   6.967054   6.097293
    35  H    7.277791   8.060280   4.034472   6.252025   5.260649
    36  C    9.205081   9.771417   4.824912   8.329249   7.278650
    37  C    7.210916   7.520246   2.391884   7.323322   6.768368
    38  H    9.736585  10.156214   4.878773   9.076709   8.127307
    39  H    9.442412   9.974429   5.099404   8.755974   7.685779
    40  H    9.712395  10.426265   5.721191   8.361070   7.136245
    41  O    7.413214   7.491790   1.937172   7.887200   7.520822
    42  O    6.935494   7.208409   2.630521   7.397832   6.886976
    43  H    6.778034   7.451593   3.487360   5.815036   5.218351
    44  H    6.840140   7.324000   3.332753   6.937038   6.280600
                   21         22         23         24         25
    21  H    0.000000
    22  H    1.787387   0.000000
    23  H    1.777847   1.782964   0.000000
    24  C    2.979998   2.906124   3.729403   0.000000
    25  H    3.263477   2.635787   3.911609   1.093785   0.000000
    26  H    2.752488   3.203451   3.972099   1.091676   1.792122
    27  H    3.977608   3.904240   4.579558   1.090954   1.796477
    28  C    4.108141   3.045502   3.358361   3.046324   2.947557
    29  H    4.623014   3.739717   4.183983   2.799918   2.787424
    30  H    4.391673   3.520168   3.281577   3.811563   3.895430
    31  H    3.806655   2.372336   3.117026   3.109159   2.691082
    32  N    6.469218   4.784641   6.149824   6.495586   5.513781
    33  H    7.379404   5.694225   7.108290   7.144489   6.114119
    34  C    6.817279   5.116843   6.138586   7.171715   6.297028
    35  H    5.994462   4.347974   5.186121   6.663079   5.894131
    36  C    7.897520   6.305256   7.251044   8.538968   7.660091
    37  C    7.631482   5.870317   6.756589   7.611375   6.764999
    38  H    8.746988   7.114121   8.179992   9.140565   8.197003
    39  H    8.347380   6.793100   7.506667   9.161040   8.349014
    40  H    7.621721   6.159090   7.140123   8.512355   7.646781
    41  O    8.385453   6.599241   7.624170   7.979602   7.073806
    42  O    7.824341   6.132278   6.677497   7.981056   7.265369
    43  H    5.902141   4.170909   5.591187   5.620864   4.634316
    44  H    7.198187   5.579872   5.969324   7.665228   7.018484
                   26         27         28         29         30
    26  H    0.000000
    27  H    1.798638   0.000000
    28  C    4.050366   3.248037   0.000000
    29  H    3.878545   2.643270   1.085387   0.000000
    30  H    4.737277   3.988268   1.080536   1.845734   0.000000
    31  H    4.025187   3.581724   1.083284   1.902399   1.874921
    32  N    7.023023   7.175424   5.576353   6.135330   6.216422
    33  H    7.696241   7.738347   6.238706   6.688381   6.923051
    34  C    7.763942   7.861963   5.723071   6.447578   6.135030
    35  H    7.228744   7.416947   5.157374   6.001883   5.462224
    36  C    9.042090   9.286942   7.205676   7.961591   7.564533
    37  C    8.362857   8.137614   5.677034   6.328327   6.003365
    38  H    9.664796   9.830540   7.848253   8.512435   8.277576
    39  H    9.694753   9.907241   7.571850   8.400655   7.786184
    40  H    8.891386   9.344399   7.512267   8.285265   7.905542
    41  O    8.773933   8.393618   6.115467   6.594362   6.543504
    42  O    8.781219   8.481846   5.659375   6.408388   5.742247
    43  H    6.229322   6.239121   4.659919   5.154249   5.371597
    44  H    8.412439   8.244543   5.375399   6.239657   5.369703
                   31         32         33         34         35
    31  H    0.000000
    32  N    4.544896   0.000000
    33  H    5.257761   1.020346   0.000000
    34  C    4.744916   1.448894   2.008757   0.000000
    35  H    4.183449   2.066309   2.903397   1.096962   0.000000
    36  C    6.217541   2.448700   2.677611   1.530464   2.163477
    37  C    4.866552   2.469802   2.604821   1.525041   2.139041
    38  H    6.870458   2.719274   2.519218   2.161626   3.068013
    39  H    6.646002   3.405940   3.673930   2.185945   2.518687
    40  H    6.475378   2.668405   3.029890   2.152637   2.497039
    41  O    5.369176   2.834273   2.539495   2.410062   3.221362
    42  O    4.995718   3.639426   3.924056   2.454911   2.564469
    43  H    3.652995   1.020228   1.626116   2.000077   2.313261
    44  H    4.689239   3.706211   4.214889   2.431697   2.129101
                   36         37         38         39         40
    36  C    0.000000
    37  C    2.476904   0.000000
    38  H    1.094826   2.717452   0.000000
    39  H    1.094204   2.725817   1.772855   0.000000
    40  H    1.091594   3.428645   1.775291   1.783636   0.000000
    41  O    3.194978   1.210735   3.023293   3.571106   4.156597
    42  O    3.209961   1.343719   3.635800   3.002707   4.155984
    43  H    3.318707   2.631339   3.636989   4.160756   3.597424
    44  H    3.192071   1.902677   3.877893   2.894759   3.972506
                   41         42         43         44
    41  O    0.000000
    42  O    2.205236   0.000000
    43  H    2.920530   3.686165   0.000000
    44  H    2.991663   0.969638   3.748292   0.000000
 Symmetry turned off by external request.
 Stoichiometry    C11H22N4O6S
 Framework group  C1[X(C11H22N4O6S)]
 Deg. of freedom   126
 Full point group                 C1      NOp   1
 Rotational constants (GHZ):      0.3543533      0.1293744      0.1014799
 Standard basis: 6-31G(d) (6D, 7F)
   378 basis functions,   728 primitive gaussians,   378 cartesian basis functions
    90 alpha electrons       90 beta electrons
       nuclear repulsion energy      2098.7782403026 Hartrees.
 NAtoms=   44 NActive=   44 NUniq=   44 SFac= 1.00D+00 NAtFMM=   60 NAOKFM=F Big=F
 Integral buffers will be    131072 words long.
 Raffenetti 2 integral format.
 Two-electron integral symmetry is turned off.
 One-electron integrals computed using PRISM.
 NBasis=   378 RedAO= T EigKep=  1.11D-03  NBF=   378
 NBsUse=   378 1.00D-06 EigRej= -1.00D+00 NBFU=   378
 ExpMin= 1.17D-01 ExpMax= 2.19D+04 ExpMxC= 3.30D+03 IAcc=1 IRadAn=         1 AccDes= 0.00D+00
 Harris functional with IExCor=  402 and IRadAn=       1 diagonalized for initial guess.
 HarFok:  IExCor=  402 AccDes= 0.00D+00 IRadAn=         1 IDoV= 1 UseB2=F ITyADJ=14
 ICtDFT=  3500011 ScaDFX=  1.000000  1.000000  1.000000  1.000000
 FoFCou: FMM=F IPFlag=           0 FMFlag=      100000 FMFlg1=           0
         NFxFlg=           0 DoJE=T BraDBF=F KetDBF=T FulRan=T
         wScrn=  0.000000 ICntrl=     500 IOpCl=  0 I1Cent=   200000004 NGrid=           0
         NMat0=    1 NMatS0=      1 NMatT0=    0 NMatD0=    1 NMtDS0=    0 NMtDT0=    0
 Symmetry not used in FoFCou.
 Keep R1 ints in memory in canonical form, NReq=2593217330.
 Requested convergence on RMS density matrix=1.00D-08 within 128 cycles.
 Requested convergence on MAX density matrix=1.00D-06.
 Requested convergence on             energy=1.00D-06.
 No special actions if energy rises.
 Integral accuracy reduced to 1.0D-05 until final iterations.
 Initial convergence to 1.0D-05 achieved.  Increase integral accuracy.
 SCF Done:  E(RB3LYP) =  -1500.94876153     A.U. after   15 cycles
            NFock= 15  Conv=0.36D-08     -V/T= 2.0073
 DoSCS=F DFT=T ScalE2(SS,OS)=  1.000000  1.000000
 Range of M.O.s used for correlation:     1   378
 NBasis=   378 NAE=    90 NBE=    90 NFC=     0 NFV=     0
 NROrb=    378 NOA=    90 NOB=    90 NVA=   288 NVB=   288
 Symmetrizing basis deriv contribution to polar:
 IMax=3 JMax=2 DiffMx= 0.00D+00
 G2DrvN: will do    45 centers at a time, making    1 passes.
 Calling FoFCou, ICntrl=  3107 FMM=F I1Cent=   0 AccDes= 0.00D+00.
 End of G2Drv F.D. properties file   721 does not exist.
 End of G2Drv F.D. properties file   722 does not exist.
 End of G2Drv F.D. properties file   788 does not exist.
          IDoAtm=11111111111111111111111111111111111111111111
          Differentiating once with respect to electric field.
                with respect to dipole field.
          Differentiating once with respect to nuclear coordinates.
 Keep R1 ints in memory in canonical form, NReq=2592769138.
 CalDSu:  requested number of processors reduced to:   9 ShMem   1 Linda.
          There are   135 degrees of freedom in the 1st order CPHF.  IDoFFX=6 NUNeed=     3.
    132 vectors produced by pass  0 Test12= 2.59D-14 1.00D-09 XBig12= 2.17D+02 6.23D+00.
 AX will form   132 AO Fock derivatives at one time.
 CalDSu:  requested number of processors reduced to:   9 ShMem   1 Linda.
    132 vectors produced by pass  1 Test12= 2.59D-14 1.00D-09 XBig12= 3.86D+01 1.06D+00.
 CalDSu:  requested number of processors reduced to:   9 ShMem   1 Linda.
    132 vectors produced by pass  2 Test12= 2.59D-14 1.00D-09 XBig12= 2.88D-01 5.18D-02.
 CalDSu:  requested number of processors reduced to:   9 ShMem   1 Linda.
    132 vectors produced by pass  3 Test12= 2.59D-14 1.00D-09 XBig12= 9.19D-04 3.19D-03.
 CalDSu:  requested number of processors reduced to:   9 ShMem   1 Linda.
    132 vectors produced by pass  4 Test12= 2.59D-14 1.00D-09 XBig12= 1.33D-06 1.01D-04.
 CalDSu:  requested number of processors reduced to:   9 ShMem   1 Linda.
    100 vectors produced by pass  5 Test12= 2.59D-14 1.00D-09 XBig12= 1.31D-09 2.96D-06.
 CalDSu:  requested number of processors reduced to:  12 ShMem   1 Linda.
     13 vectors produced by pass  6 Test12= 2.59D-14 1.00D-09 XBig12= 1.04D-12 8.38D-08.
      3 vectors produced by pass  7 Test12= 2.59D-14 1.00D-09 XBig12= 9.09D-16 2.92D-09.
 InvSVY:  IOpt=1 It=  1 EMax= 2.13D-14
 Solved reduced A of dimension   776 with   135 vectors.
 Isotropic polarizability for W=    0.000000      197.39 Bohr**3.
 End of Minotr F.D. properties file   721 does not exist.
 End of Minotr F.D. properties file   722 does not exist.
 End of Minotr F.D. properties file   788 does not exist.

 **********************************************************************

            Population analysis using the SCF density.

 **********************************************************************

 Alpha  occ. eigenvalues --  -88.91808 -19.20588 -19.14592 -19.12378 -19.12378
 Alpha  occ. eigenvalues --  -19.06229 -19.06000 -14.39466 -14.34905 -14.34519
 Alpha  occ. eigenvalues --  -14.31103 -10.32535 -10.32412 -10.29465 -10.27995
 Alpha  occ. eigenvalues --  -10.26819 -10.23384 -10.23210 -10.22939 -10.21718
 Alpha  occ. eigenvalues --  -10.21051 -10.19029  -7.97801  -5.94218  -5.93877
 Alpha  occ. eigenvalues --   -5.93433  -1.11574  -1.06251  -1.05097  -1.03042
 Alpha  occ. eigenvalues --   -0.98478  -0.95569  -0.94650  -0.91649  -0.89362
 Alpha  occ. eigenvalues --   -0.88385  -0.83529  -0.79408  -0.75247  -0.72562
 Alpha  occ. eigenvalues --   -0.70876  -0.67079  -0.66541  -0.65535  -0.61852
 Alpha  occ. eigenvalues --   -0.61795  -0.57888  -0.57179  -0.54742  -0.53567
 Alpha  occ. eigenvalues --   -0.53086  -0.50128  -0.48964  -0.47467  -0.47161
 Alpha  occ. eigenvalues --   -0.46898  -0.46539  -0.46001  -0.45786  -0.45346
 Alpha  occ. eigenvalues --   -0.44568  -0.43687  -0.43345  -0.43174  -0.42388
 Alpha  occ. eigenvalues --   -0.42138  -0.41907  -0.40986  -0.39642  -0.39306
 Alpha  occ. eigenvalues --   -0.38861  -0.38543  -0.37986  -0.37921  -0.36316
 Alpha  occ. eigenvalues --   -0.35986  -0.35797  -0.33962  -0.32832  -0.32145
 Alpha  occ. eigenvalues --   -0.28972  -0.28155  -0.26119  -0.25887  -0.24699
 Alpha  occ. eigenvalues --   -0.24610  -0.24245  -0.24103  -0.22416  -0.20275
 Alpha virt. eigenvalues --   -0.03840  -0.00176   0.00257   0.00592   0.03077
 Alpha virt. eigenvalues --    0.05211   0.06993   0.07492   0.08095   0.09934
 Alpha virt. eigenvalues --    0.10176   0.11534   0.11998   0.12085   0.12914
 Alpha virt. eigenvalues --    0.13037   0.13884   0.14189   0.14716   0.14949
 Alpha virt. eigenvalues --    0.15418   0.15921   0.16554   0.17113   0.17521
 Alpha virt. eigenvalues --    0.18599   0.19416   0.20884   0.21078   0.21934
 Alpha virt. eigenvalues --    0.22527   0.23771   0.24442   0.25890   0.26797
 Alpha virt. eigenvalues --    0.29152   0.30905   0.32642   0.34410   0.34801
 Alpha virt. eigenvalues --    0.36244   0.37786   0.38493   0.39077   0.40303
 Alpha virt. eigenvalues --    0.40887   0.42922   0.43799   0.45353   0.47019
 Alpha virt. eigenvalues --    0.48324   0.48928   0.50690   0.51206   0.51456
 Alpha virt. eigenvalues --    0.53037   0.53991   0.54430   0.54682   0.55726
 Alpha virt. eigenvalues --    0.56322   0.56745   0.57801   0.58750   0.59172
 Alpha virt. eigenvalues --    0.60151   0.60456   0.61650   0.62468   0.63246
 Alpha virt. eigenvalues --    0.64624   0.64884   0.65152   0.66165   0.66483
 Alpha virt. eigenvalues --    0.67355   0.67841   0.69387   0.72057   0.73176
 Alpha virt. eigenvalues --    0.73659   0.74262   0.75395   0.76661   0.77945
 Alpha virt. eigenvalues --    0.79003   0.79507   0.80301   0.80393   0.81921
 Alpha virt. eigenvalues --    0.82675   0.83369   0.83780   0.84393   0.84647
 Alpha virt. eigenvalues --    0.85100   0.85362   0.85737   0.86796   0.86931
 Alpha virt. eigenvalues --    0.87547   0.87997   0.88467   0.89305   0.89456
 Alpha virt. eigenvalues --    0.90365   0.90758   0.91342   0.91732   0.92181
 Alpha virt. eigenvalues --    0.93088   0.94716   0.95981   0.96349   0.96553
 Alpha virt. eigenvalues --    0.97312   0.98053   0.98635   0.99793   1.00321
 Alpha virt. eigenvalues --    1.00585   1.01039   1.02085   1.03219   1.04292
 Alpha virt. eigenvalues --    1.05557   1.05942   1.07984   1.08805   1.09853
 Alpha virt. eigenvalues --    1.11655   1.12055   1.13894   1.14514   1.17262
 Alpha virt. eigenvalues --    1.18431   1.20409   1.21438   1.22474   1.23833
 Alpha virt. eigenvalues --    1.25595   1.26042   1.29670   1.31053   1.32854
 Alpha virt. eigenvalues --    1.33149   1.34424   1.37051   1.38096   1.38935
 Alpha virt. eigenvalues --    1.39257   1.40967   1.41434   1.42317   1.43102
 Alpha virt. eigenvalues --    1.44337   1.44930   1.45690   1.46984   1.47676
 Alpha virt. eigenvalues --    1.49548   1.50755   1.54037   1.55710   1.59212
 Alpha virt. eigenvalues --    1.61118   1.63927   1.65985   1.66303   1.67489
 Alpha virt. eigenvalues --    1.68333   1.69316   1.70041   1.71050   1.71669
 Alpha virt. eigenvalues --    1.72364   1.73633   1.74379   1.75409   1.77241
 Alpha virt. eigenvalues --    1.77732   1.78331   1.79062   1.80474   1.80746
 Alpha virt. eigenvalues --    1.81301   1.82765   1.84969   1.85890   1.86906
 Alpha virt. eigenvalues --    1.88890   1.89395   1.89922   1.91287   1.93243
 Alpha virt. eigenvalues --    1.93595   1.95033   1.95251   1.97619   1.98866
 Alpha virt. eigenvalues --    1.99941   2.00120   2.01308   2.02276   2.02548
 Alpha virt. eigenvalues --    2.04119   2.08335   2.09621   2.10669   2.12715
 Alpha virt. eigenvalues --    2.15356   2.17467   2.18350   2.18493   2.19462
 Alpha virt. eigenvalues --    2.19759   2.19804   2.20473   2.21196   2.22279
 Alpha virt. eigenvalues --    2.22475   2.23679   2.24372   2.26605   2.28076
 Alpha virt. eigenvalues --    2.29733   2.30680   2.31521   2.32761   2.35438
 Alpha virt. eigenvalues --    2.35673   2.37087   2.42280   2.44023   2.45122
 Alpha virt. eigenvalues --    2.47685   2.50374   2.54399   2.54885   2.57154
 Alpha virt. eigenvalues --    2.60797   2.62495   2.62675   2.64292   2.65374
 Alpha virt. eigenvalues --    2.66945   2.68518   2.70504   2.73360   2.75551
 Alpha virt. eigenvalues --    2.76745   2.78233   2.80596   2.83522   2.85571
 Alpha virt. eigenvalues --    2.90657   2.92059   3.00686   3.03013   3.03846
 Alpha virt. eigenvalues --    3.04194   3.07666   3.08937   3.20834   3.25579
 Alpha virt. eigenvalues --    3.42991   3.79038   3.87327   3.89474   3.95201
 Alpha virt. eigenvalues --    3.97905   4.01703   4.05801   4.12275   4.14224
 Alpha virt. eigenvalues --    4.18520   4.21138   4.22414   4.24349   4.27479
 Alpha virt. eigenvalues --    4.29130   4.31110   4.31484   4.34711   4.36114
 Alpha virt. eigenvalues --    4.55465   4.61526   4.66672
          Condensed to atoms (all electrons):
               1          2          3          4          5          6
     1  C    4.169249   0.430563   0.290740   0.417294  -0.017420  -0.000001
     2  O    0.430563   8.298988  -0.102973  -0.087317   0.017936  -0.000003
     3  O    0.290740  -0.102973   8.262198  -0.081507   0.218309  -0.000000
     4  O    0.417294  -0.087317  -0.081507   8.289090   0.006419  -0.000009
     5  H   -0.017420   0.017936   0.218309   0.006419   0.391181   0.000000
     6  C   -0.000001  -0.000003  -0.000000  -0.000009   0.000000   4.157991
     7  C   -0.000003  -0.000001   0.000000  -0.000019   0.000000  -0.020415
     8  C   -0.000000   0.000000   0.000000   0.000000  -0.000000  -0.033851
     9  N   -0.000000   0.000000   0.000000   0.000000  -0.000000   0.293061
    10  H    0.000000  -0.000000  -0.000000   0.000000   0.000000   0.000760
    11  H   -0.000000   0.000000  -0.000000  -0.000000   0.000000   0.002307
    12  O   -0.000000  -0.000000  -0.000000  -0.000000   0.000000   0.513531
    13  N   -0.000114   0.000014   0.000000  -0.000057  -0.000000   0.359555
    14  C   -0.000171  -0.000025  -0.000001   0.000445   0.000000  -0.027850
    15  N    0.007931  -0.000123  -0.000076  -0.073405   0.000020   0.002176
    16  H   -0.012050  -0.000259   0.001264   0.135187  -0.000181  -0.000192
    17  H   -0.000109  -0.000020   0.000005   0.001670  -0.000001  -0.000108
    18  H    0.000000  -0.000000  -0.000000   0.000000   0.000000  -0.015794
    19  S    0.000648   0.028306  -0.000262  -0.000130   0.000288   0.000085
    20  C    0.000063   0.000300   0.000000  -0.000017  -0.000000  -0.000020
    21  H    0.000000  -0.000000   0.000000  -0.000000  -0.000000   0.000000
    22  H    0.000000   0.000000  -0.000000  -0.000000   0.000000  -0.000022
    23  H   -0.000000   0.000002   0.000000   0.000000  -0.000000   0.000001
    24  C    0.000443  -0.019777   0.000014  -0.000017  -0.000074   0.000003
    25  H    0.000013   0.000108  -0.000001   0.000001   0.000001  -0.000005
    26  H   -0.000017   0.000301   0.000001  -0.000001  -0.000002   0.000000
    27  H   -0.000479   0.024767  -0.000013   0.000190   0.000221   0.000000
    28  C   -0.003194  -0.026314  -0.000170   0.001639   0.000027  -0.010331
    29  H    0.001134   0.046385   0.000471  -0.007331  -0.000055   0.000683
    30  H   -0.000634  -0.000570   0.000004   0.009340  -0.000004   0.000224
    31  H    0.000300   0.000318   0.000001   0.000446  -0.000001  -0.000376
    32  N   -0.000000  -0.000000  -0.000000  -0.000000  -0.000000   0.000587
    33  H   -0.000000   0.000000  -0.000000  -0.000000   0.000000   0.000032
    34  C    0.000000   0.000000  -0.000000   0.000000  -0.000000  -0.000606
    35  H   -0.000000  -0.000000   0.000000   0.000000  -0.000000  -0.000060
    36  C   -0.000000   0.000000  -0.000000   0.000000  -0.000000   0.000020
    37  C   -0.000000   0.000000  -0.000000  -0.000000  -0.000000   0.002051
    38  H   -0.000000  -0.000000   0.000000   0.000000   0.000000   0.000000
    39  H    0.000000   0.000000   0.000000   0.000000  -0.000000  -0.000001
    40  H    0.000000  -0.000000   0.000000  -0.000000   0.000000  -0.000000
    41  O   -0.000000  -0.000000   0.000000   0.000000  -0.000000  -0.002826
    42  O    0.000000  -0.000000   0.000000  -0.000000   0.000000   0.002708
    43  H   -0.000000   0.000000  -0.000000   0.000000  -0.000000   0.000302
    44  H    0.000000   0.000000   0.000000   0.000000  -0.000000  -0.000095
               7          8          9         10         11         12
     1  C   -0.000003  -0.000000  -0.000000   0.000000  -0.000000  -0.000000
     2  O   -0.000001   0.000000   0.000000  -0.000000   0.000000  -0.000000
     3  O    0.000000   0.000000   0.000000  -0.000000  -0.000000  -0.000000
     4  O   -0.000019   0.000000   0.000000   0.000000  -0.000000  -0.000000
     5  H    0.000000  -0.000000  -0.000000   0.000000   0.000000   0.000000
     6  C   -0.020415  -0.033851   0.293061   0.000760   0.002307   0.513531
     7  C    5.057682   0.584644  -0.029537   0.356868  -0.035093   0.000789
     8  C    0.584644   4.721027   0.334351  -0.038462   0.368630   0.002217
     9  N   -0.029537   0.334351   7.072233   0.003607  -0.045070  -0.087143
    10  H    0.356868  -0.038462   0.003607   0.556049  -0.003906   0.000006
    11  H   -0.035093   0.368630  -0.045070  -0.003906   0.532447  -0.000113
    12  O    0.000789   0.002217  -0.087143   0.000006  -0.000113   8.197471
    13  N   -0.050712  -0.021146  -0.100301   0.004191  -0.000251  -0.081337
    14  C    0.449248  -0.020523  -0.020092  -0.028340   0.003103   0.000344
    15  N   -0.082796   0.004541   0.000194  -0.005102  -0.000140  -0.000054
    16  H    0.002706  -0.000017   0.000005  -0.000091   0.000001  -0.000010
    17  H   -0.004487   0.000342   0.000025   0.004023  -0.000006   0.000001
    18  H    0.002736  -0.021541   0.251095  -0.000076  -0.003577  -0.000806
    19  S    0.000016   0.000001   0.000013  -0.000000   0.000000   0.000038
    20  C    0.000000  -0.000000  -0.000000   0.000000  -0.000000  -0.000051
    21  H    0.000000   0.000000   0.000000  -0.000000   0.000000  -0.000000
    22  H   -0.000000  -0.000000  -0.000000   0.000000  -0.000000   0.000074
    23  H   -0.000000  -0.000000  -0.000000   0.000000  -0.000000   0.000002
    24  C   -0.000000  -0.000000  -0.000000   0.000000   0.000000   0.000003
    25  H   -0.000000  -0.000000  -0.000000   0.000000  -0.000000  -0.000014
    26  H    0.000000   0.000000   0.000000  -0.000000   0.000000   0.000000
    27  H   -0.000000  -0.000000  -0.000000   0.000000  -0.000000   0.000000
    28  C    0.001150   0.000060   0.000284  -0.000017   0.000001  -0.014038
    29  H   -0.000225  -0.000015  -0.000006   0.000005   0.000000   0.000244
    30  H   -0.000077  -0.000010  -0.000035   0.000002  -0.000000   0.000101
    31  H   -0.000116  -0.000048   0.000419   0.000001   0.000000   0.028014
    32  N    0.000000  -0.000001   0.000009   0.000000  -0.000000  -0.009079
    33  H    0.000000  -0.000000   0.000024  -0.000000  -0.000000   0.000143
    34  C    0.000000  -0.000010  -0.000544   0.000000   0.000000  -0.000062
    35  H   -0.000000  -0.000001   0.000101  -0.000000   0.000000   0.002938
    36  C   -0.000000   0.000000  -0.000004  -0.000000   0.000000   0.000392
    37  C   -0.000012   0.000322  -0.001869  -0.000000  -0.000017   0.018792
    38  H    0.000000  -0.000000   0.000001  -0.000000  -0.000000  -0.000002
    39  H   -0.000000   0.000000   0.000000  -0.000000  -0.000000   0.000002
    40  H    0.000000  -0.000000  -0.000000   0.000000  -0.000000  -0.000001
    41  O   -0.000009   0.000187  -0.018665   0.000000   0.000051  -0.004082
    42  O   -0.000005  -0.000078   0.001711  -0.000000   0.000005  -0.005688
    43  H   -0.000000   0.000001  -0.000157  -0.000000   0.000000   0.021983
    44  H    0.000001   0.000002  -0.000080  -0.000000   0.000000   0.002751
              13         14         15         16         17         18
     1  C   -0.000114  -0.000171   0.007931  -0.012050  -0.000109   0.000000
     2  O    0.000014  -0.000025  -0.000123  -0.000259  -0.000020  -0.000000
     3  O    0.000000  -0.000001  -0.000076   0.001264   0.000005  -0.000000
     4  O   -0.000057   0.000445  -0.073405   0.135187   0.001670   0.000000
     5  H   -0.000000   0.000000   0.000020  -0.000181  -0.000001   0.000000
     6  C    0.359555  -0.027850   0.002176  -0.000192  -0.000108  -0.015794
     7  C   -0.050712   0.449248  -0.082796   0.002706  -0.004487   0.002736
     8  C   -0.021146  -0.020523   0.004541  -0.000017   0.000342  -0.021541
     9  N   -0.100301  -0.020092   0.000194   0.000005   0.000025   0.251095
    10  H    0.004191  -0.028340  -0.005102  -0.000091   0.004023  -0.000076
    11  H   -0.000251   0.003103  -0.000140   0.000001  -0.000006  -0.003577
    12  O   -0.081337   0.000344  -0.000054  -0.000010   0.000001  -0.000806
    13  N    7.202172   0.403658  -0.081812  -0.000140   0.004289   0.003030
    14  C    0.403658   4.289551   0.379830  -0.002583  -0.031698   0.000664
    15  N   -0.081812   0.379830   7.208399   0.130460   0.315505   0.000012
    16  H   -0.000140  -0.002583   0.130460   0.304444  -0.009361  -0.000000
    17  H    0.004289  -0.031698   0.315505  -0.009361   0.385119  -0.000000
    18  H    0.003030   0.000664   0.000012  -0.000000  -0.000000   0.331126
    19  S    0.011479   0.000056  -0.000153   0.000306   0.000002  -0.000001
    20  C   -0.000057  -0.000001  -0.000000   0.000001   0.000000  -0.000000
    21  H    0.000001   0.000000   0.000000   0.000000  -0.000000  -0.000000
    22  H   -0.000103   0.000000   0.000000  -0.000000   0.000000   0.000000
    23  H   -0.000009  -0.000000   0.000000  -0.000000   0.000000   0.000000
    24  C   -0.000086  -0.000001   0.000001  -0.000006  -0.000000   0.000000
    25  H   -0.000162  -0.000001   0.000001  -0.000002  -0.000000   0.000000
    26  H    0.000001   0.000000  -0.000000   0.000000   0.000000  -0.000000
    27  H   -0.000007  -0.000002  -0.000003   0.000009   0.000000   0.000000
    28  C    0.036572  -0.006064  -0.001947   0.000158   0.000054  -0.000016
    29  H   -0.020063  -0.000216   0.002519   0.000000   0.000036   0.000002
    30  H   -0.020812  -0.001157   0.001592  -0.000053   0.000005   0.000001
    31  H   -0.033133   0.001523   0.000216   0.000117   0.000002   0.000015
    32  N   -0.000002   0.000000  -0.000000  -0.000000   0.000000  -0.000230
    33  H    0.000000   0.000000   0.000000   0.000000  -0.000000  -0.000144
    34  C   -0.000002  -0.000000   0.000000   0.000000  -0.000000   0.002251
    35  H   -0.000008   0.000000   0.000000  -0.000000   0.000000  -0.000262
    36  C    0.000000  -0.000000   0.000000   0.000000  -0.000000   0.000016
    37  C    0.000085  -0.000003   0.000000   0.000000  -0.000000   0.000420
    38  H    0.000000   0.000000  -0.000000  -0.000000   0.000000  -0.000011
    39  H    0.000000  -0.000000  -0.000000   0.000000  -0.000000  -0.000000
    40  H   -0.000000  -0.000000  -0.000000  -0.000000   0.000000   0.000000
    41  O   -0.000011   0.000000  -0.000000  -0.000000   0.000000   0.058055
    42  O   -0.000050   0.000006   0.000000  -0.000000   0.000000  -0.004340
    43  H    0.000032  -0.000000   0.000000   0.000000  -0.000000   0.000066
    44  H   -0.000027  -0.000002   0.000000  -0.000000  -0.000000   0.000009
              19         20         21         22         23         24
     1  C    0.000648   0.000063   0.000000   0.000000  -0.000000   0.000443
     2  O    0.028306   0.000300  -0.000000   0.000000   0.000002  -0.019777
     3  O   -0.000262   0.000000   0.000000  -0.000000   0.000000   0.000014
     4  O   -0.000130  -0.000017  -0.000000  -0.000000   0.000000  -0.000017
     5  H    0.000288  -0.000000  -0.000000   0.000000  -0.000000  -0.000074
     6  C    0.000085  -0.000020   0.000000  -0.000022   0.000001   0.000003
     7  C    0.000016   0.000000   0.000000  -0.000000  -0.000000  -0.000000
     8  C    0.000001  -0.000000   0.000000  -0.000000  -0.000000  -0.000000
     9  N    0.000013  -0.000000   0.000000  -0.000000  -0.000000  -0.000000
    10  H   -0.000000   0.000000  -0.000000   0.000000   0.000000   0.000000
    11  H    0.000000  -0.000000   0.000000  -0.000000  -0.000000   0.000000
    12  O    0.000038  -0.000051  -0.000000   0.000074   0.000002   0.000003
    13  N    0.011479  -0.000057   0.000001  -0.000103  -0.000009  -0.000086
    14  C    0.000056  -0.000001   0.000000   0.000000  -0.000000  -0.000001
    15  N   -0.000153  -0.000000   0.000000   0.000000   0.000000   0.000001
    16  H    0.000306   0.000001   0.000000  -0.000000  -0.000000  -0.000006
    17  H    0.000002   0.000000  -0.000000   0.000000   0.000000  -0.000000
    18  H   -0.000001  -0.000000  -0.000000   0.000000   0.000000   0.000000
    19  S   15.435055   0.219005  -0.031727  -0.041572  -0.034544   0.248776
    20  C    0.219005   5.335543   0.366371   0.363198   0.372819  -0.032724
    21  H   -0.031727   0.366371   0.525462  -0.030816  -0.023432  -0.002981
    22  H   -0.041572   0.363198  -0.030816   0.533443  -0.023347  -0.004105
    23  H   -0.034544   0.372819  -0.023432  -0.023347   0.507764   0.003033
    24  C    0.248776  -0.032724  -0.002981  -0.004105   0.003033   5.350156
    25  H   -0.048294  -0.004113  -0.000867   0.006761   0.000009   0.360912
    26  H   -0.034327  -0.002582   0.003993  -0.000811  -0.000025   0.361667
    27  H   -0.032645   0.002967  -0.000017  -0.000003  -0.000068   0.351589
    28  C    0.079860  -0.013667   0.000946  -0.003080   0.000060  -0.013679
    29  H   -0.044669   0.001163  -0.000057   0.000267   0.000014   0.001290
    30  H   -0.035284   0.000360  -0.000054   0.000182   0.000419   0.001291
    31  H   -0.042460  -0.000445  -0.000154   0.007059   0.000025  -0.000329
    32  N    0.000000  -0.000000   0.000000   0.000003   0.000000  -0.000000
    33  H   -0.000000   0.000000  -0.000000  -0.000000   0.000000   0.000000
    34  C    0.000000  -0.000000   0.000000  -0.000001  -0.000000   0.000000
    35  H   -0.000001   0.000000  -0.000000   0.000020   0.000000   0.000000
    36  C    0.000000   0.000000   0.000000  -0.000000  -0.000000  -0.000000
    37  C    0.000000   0.000000   0.000000  -0.000000  -0.000000  -0.000000
    38  H   -0.000000  -0.000000  -0.000000   0.000000   0.000000   0.000000
    39  H    0.000000   0.000000   0.000000  -0.000000  -0.000000   0.000000
    40  H   -0.000000   0.000000  -0.000000  -0.000000  -0.000000   0.000000
    41  O    0.000000  -0.000000  -0.000000   0.000000   0.000000   0.000000
    42  O   -0.000000  -0.000000  -0.000000   0.000000   0.000000   0.000000
    43  H   -0.000002  -0.000001  -0.000000   0.000029  -0.000000  -0.000000
    44  H    0.000000   0.000000   0.000000  -0.000000   0.000000   0.000000
              25         26         27         28         29         30
     1  C    0.000013  -0.000017  -0.000479  -0.003194   0.001134  -0.000634
     2  O    0.000108   0.000301   0.024767  -0.026314   0.046385  -0.000570
     3  O   -0.000001   0.000001  -0.000013  -0.000170   0.000471   0.000004
     4  O    0.000001  -0.000001   0.000190   0.001639  -0.007331   0.009340
     5  H    0.000001  -0.000002   0.000221   0.000027  -0.000055  -0.000004
     6  C   -0.000005   0.000000   0.000000  -0.010331   0.000683   0.000224
     7  C   -0.000000   0.000000  -0.000000   0.001150  -0.000225  -0.000077
     8  C   -0.000000   0.000000  -0.000000   0.000060  -0.000015  -0.000010
     9  N   -0.000000   0.000000  -0.000000   0.000284  -0.000006  -0.000035
    10  H    0.000000  -0.000000   0.000000  -0.000017   0.000005   0.000002
    11  H   -0.000000   0.000000  -0.000000   0.000001   0.000000  -0.000000
    12  O   -0.000014   0.000000   0.000000  -0.014038   0.000244   0.000101
    13  N   -0.000162   0.000001  -0.000007   0.036572  -0.020063  -0.020812
    14  C   -0.000001   0.000000  -0.000002  -0.006064  -0.000216  -0.001157
    15  N    0.000001  -0.000000  -0.000003  -0.001947   0.002519   0.001592
    16  H   -0.000002   0.000000   0.000009   0.000158   0.000000  -0.000053
    17  H   -0.000000   0.000000   0.000000   0.000054   0.000036   0.000005
    18  H    0.000000  -0.000000   0.000000  -0.000016   0.000002   0.000001
    19  S   -0.048294  -0.034327  -0.032645   0.079860  -0.044669  -0.035284
    20  C   -0.004113  -0.002582   0.002967  -0.013667   0.001163   0.000360
    21  H   -0.000867   0.003993  -0.000017   0.000946  -0.000057  -0.000054
    22  H    0.006761  -0.000811  -0.000003  -0.003080   0.000267   0.000182
    23  H    0.000009  -0.000025  -0.000068   0.000060   0.000014   0.000419
    24  C    0.360912   0.361667   0.351589  -0.013679   0.001290   0.001291
    25  H    0.552576  -0.031888  -0.017127  -0.000999   0.000562   0.000160
    26  H   -0.031888   0.537897  -0.016965   0.000884   0.000032  -0.000043
    27  H   -0.017127  -0.016965   0.428371  -0.000543   0.000420   0.000011
    28  C   -0.000999   0.000884  -0.000543   5.353656   0.339254   0.378731
    29  H    0.000562   0.000032   0.000420   0.339254   0.447094  -0.016650
    30  H    0.000160  -0.000043   0.000011   0.378731  -0.016650   0.462630
    31  H    0.003394  -0.000115   0.000010   0.336872  -0.012338  -0.016955
    32  N   -0.000000   0.000000   0.000000   0.000000   0.000000  -0.000000
    33  H   -0.000000  -0.000000   0.000000   0.000000  -0.000000   0.000000
    34  C   -0.000000   0.000000   0.000000   0.000000  -0.000000   0.000000
    35  H   -0.000000  -0.000000  -0.000000  -0.000004   0.000000  -0.000000
    36  C    0.000000   0.000000  -0.000000   0.000000  -0.000000  -0.000000
    37  C    0.000000   0.000000  -0.000000   0.000005  -0.000000  -0.000000
    38  H    0.000000  -0.000000   0.000000  -0.000000   0.000000   0.000000
    39  H   -0.000000   0.000000  -0.000000   0.000000  -0.000000  -0.000000
    40  H    0.000000  -0.000000   0.000000   0.000000  -0.000000   0.000000
    41  O   -0.000000   0.000000  -0.000000  -0.000000   0.000000  -0.000000
    42  O    0.000000  -0.000000   0.000000  -0.000001   0.000000   0.000000
    43  H    0.000006  -0.000000  -0.000000  -0.000012  -0.000001   0.000000
    44  H   -0.000000  -0.000000  -0.000000   0.000002   0.000000  -0.000000
              31         32         33         34         35         36
     1  C    0.000300  -0.000000  -0.000000   0.000000  -0.000000  -0.000000
     2  O    0.000318  -0.000000   0.000000   0.000000  -0.000000   0.000000
     3  O    0.000001  -0.000000  -0.000000  -0.000000   0.000000  -0.000000
     4  O    0.000446  -0.000000  -0.000000   0.000000   0.000000   0.000000
     5  H   -0.000001  -0.000000   0.000000  -0.000000  -0.000000  -0.000000
     6  C   -0.000376   0.000587   0.000032  -0.000606  -0.000060   0.000020
     7  C   -0.000116   0.000000   0.000000   0.000000  -0.000000  -0.000000
     8  C   -0.000048  -0.000001  -0.000000  -0.000010  -0.000001   0.000000
     9  N    0.000419   0.000009   0.000024  -0.000544   0.000101  -0.000004
    10  H    0.000001   0.000000  -0.000000   0.000000  -0.000000  -0.000000
    11  H    0.000000  -0.000000  -0.000000   0.000000   0.000000   0.000000
    12  O    0.028014  -0.009079   0.000143  -0.000062   0.002938   0.000392
    13  N   -0.033133  -0.000002   0.000000  -0.000002  -0.000008   0.000000
    14  C    0.001523   0.000000   0.000000  -0.000000   0.000000  -0.000000
    15  N    0.000216  -0.000000   0.000000   0.000000   0.000000   0.000000
    16  H    0.000117  -0.000000   0.000000   0.000000  -0.000000   0.000000
    17  H    0.000002   0.000000  -0.000000  -0.000000   0.000000  -0.000000
    18  H    0.000015  -0.000230  -0.000144   0.002251  -0.000262   0.000016
    19  S   -0.042460   0.000000  -0.000000   0.000000  -0.000001   0.000000
    20  C   -0.000445  -0.000000   0.000000  -0.000000   0.000000   0.000000
    21  H   -0.000154   0.000000  -0.000000   0.000000  -0.000000   0.000000
    22  H    0.007059   0.000003  -0.000000  -0.000001   0.000020  -0.000000
    23  H    0.000025   0.000000   0.000000  -0.000000   0.000000  -0.000000
    24  C   -0.000329  -0.000000   0.000000   0.000000   0.000000  -0.000000
    25  H    0.003394  -0.000000  -0.000000  -0.000000  -0.000000   0.000000
    26  H   -0.000115   0.000000  -0.000000   0.000000  -0.000000   0.000000
    27  H    0.000010   0.000000   0.000000   0.000000  -0.000000  -0.000000
    28  C    0.336872   0.000000   0.000000   0.000000  -0.000004   0.000000
    29  H   -0.012338   0.000000  -0.000000  -0.000000   0.000000  -0.000000
    30  H   -0.016955  -0.000000   0.000000   0.000000  -0.000000  -0.000000
    31  H    0.516697  -0.000016   0.000000  -0.000012   0.000037  -0.000000
    32  N   -0.000016   6.896152   0.309855   0.349819  -0.038787  -0.057448
    33  H    0.000000   0.309855   0.451360  -0.049296   0.007720  -0.004935
    34  C   -0.000012   0.349819  -0.049296   5.055048   0.361184   0.340617
    35  H    0.000037  -0.038787   0.007720   0.361184   0.614350  -0.038762
    36  C   -0.000000  -0.057448  -0.004935   0.340617  -0.038762   5.136199
    37  C   -0.000014  -0.052338  -0.005170   0.296123  -0.050538  -0.040743
    38  H    0.000000  -0.003890   0.005700  -0.032469   0.005612   0.372606
    39  H   -0.000000   0.004377  -0.000123  -0.032381  -0.002416   0.363557
    40  H   -0.000000   0.002555  -0.000768  -0.025854  -0.005571   0.369376
    41  O    0.000001  -0.009020   0.012634  -0.080582   0.002726  -0.002736
    42  O    0.000003   0.003339   0.000305  -0.076162   0.002037   0.000470
    43  H    0.000181   0.308950  -0.028641  -0.048803  -0.005523   0.006891
    44  H   -0.000003   0.000196  -0.000008   0.006052   0.005898  -0.000061
              37         38         39         40         41         42
     1  C   -0.000000  -0.000000   0.000000   0.000000  -0.000000   0.000000
     2  O    0.000000  -0.000000   0.000000  -0.000000  -0.000000  -0.000000
     3  O   -0.000000   0.000000   0.000000   0.000000   0.000000   0.000000
     4  O   -0.000000   0.000000   0.000000  -0.000000   0.000000  -0.000000
     5  H   -0.000000   0.000000  -0.000000   0.000000  -0.000000   0.000000
     6  C    0.002051   0.000000  -0.000001  -0.000000  -0.002826   0.002708
     7  C   -0.000012   0.000000  -0.000000   0.000000  -0.000009  -0.000005
     8  C    0.000322  -0.000000   0.000000  -0.000000   0.000187  -0.000078
     9  N   -0.001869   0.000001   0.000000  -0.000000  -0.018665   0.001711
    10  H   -0.000000  -0.000000  -0.000000   0.000000   0.000000  -0.000000
    11  H   -0.000017  -0.000000  -0.000000  -0.000000   0.000051   0.000005
    12  O    0.018792  -0.000002   0.000002  -0.000001  -0.004082  -0.005688
    13  N    0.000085   0.000000   0.000000  -0.000000  -0.000011  -0.000050
    14  C   -0.000003   0.000000  -0.000000  -0.000000   0.000000   0.000006
    15  N    0.000000  -0.000000  -0.000000  -0.000000  -0.000000   0.000000
    16  H    0.000000  -0.000000   0.000000  -0.000000  -0.000000  -0.000000
    17  H   -0.000000   0.000000  -0.000000   0.000000   0.000000   0.000000
    18  H    0.000420  -0.000011  -0.000000   0.000000   0.058055  -0.004340
    19  S    0.000000  -0.000000   0.000000  -0.000000   0.000000  -0.000000
    20  C    0.000000  -0.000000   0.000000   0.000000  -0.000000  -0.000000
    21  H    0.000000  -0.000000   0.000000  -0.000000  -0.000000  -0.000000
    22  H   -0.000000   0.000000  -0.000000  -0.000000   0.000000   0.000000
    23  H   -0.000000   0.000000  -0.000000  -0.000000   0.000000   0.000000
    24  C   -0.000000   0.000000   0.000000   0.000000   0.000000   0.000000
    25  H    0.000000   0.000000  -0.000000   0.000000  -0.000000   0.000000
    26  H    0.000000  -0.000000   0.000000  -0.000000   0.000000  -0.000000
[...]
 0084327,0.00038213,0.11698164,-0.05690714,-0.14304336,-0.00470216,-0.0
 0142571,-0.00158621,-0.01466603,0.00718067,0.01327339,0.01058551,-0.00
 593998,-0.00956453,-0.12666817,0.06486833,0.15422027,0.00005104,0.0001
 5081,0.00007325,-0.00000231,-0.00012872,-0.00003905,-0.00004211,-0.000
 08904,-0.00000946,-0.00001147,-0.00006898,-0.00002465,0.00000217,0.000
 02243,-0.00000264,-0.00093838,0.00185227,0.00054234,0.00059801,-0.0004
 6081,-0.00018658,-0.00170811,-0.00009325,0.00006113,0.00209013,-0.0022
 4332,0.00018012,-0.00005518,-0.00008930,-0.00003690,0.00021836,-0.0003
 7938,-0.00010107,-0.00008607,-0.00191977,-0.00052429,0.00000079,-0.001
 07958,-0.00033278,-0.00039214,0.00065128,0.00022298,0.00002713,-0.0002
 8798,-0.00009576,0.00002787,0.00003735,0.00001161,-0.00002685,-0.00000
 066,0.00000694,-0.00642964,-0.00447830,-0.00111828,-0.00007623,0.00002
 882,0.00000092,0.00000987,0.00002102,0.00001237,-0.00000340,-0.0000021
 8,0.00000135,0.00000231,-0.00000847,-0.00001006,0.00000652,0.00000095,
 0.00000123,0.00001421,-0.00000305,0.00000713,-0.00000257,0.00000102,-0
 .00000864,-0.00000114,0.00000358,0.00000232,-0.00000706,0.00001394,0.0
 0000429,0.00016665,-0.00000475,0.00000512,-0.00000240,0.00003758,-0.00
 002861,-0.00001509,-0.00000057,0.00000551,0.00005967,0.00004369,0.0000
 0584,0.00046585,0.00263783,-0.00202679,-0.00076913,-0.00018714,0.00012
 526,0.00506675,0.03178547,0.01003019,-0.00147772,0.00097125,0.00045764
 ,-0.00794582,0.00058345,0.00153328,-0.17262865,0.21519548,0.02605814,0
 .00047731,0.00004793,0.00080864,0.00031526,0.00042778,-0.00010302,0.00
 165761,0.00179213,0.00174016,0.15209254,0.00082016,0.00069320,-0.00078
 163,-0.00035037,-0.00017965,0.00030048,-0.00042609,-0.00054724,0.00010
 656,-0.00114531,-0.00051356,0.00044150,0.00006408,0.00005881,0.0000052
 6,0.00897029,-0.00335357,-0.00126306,-0.00184967,-0.00240502,-0.000646
 35,-0.00405935,0.00484611,0.00164116,-0.00840398,-0.01510213,-0.002502
 65,-0.00028680,-0.00036426,-0.00009713,0.00004658,0.00071934,0.0001489
 5,-0.00344549,0.00302348,0.00152628,-0.00390204,-0.00089449,-0.0001219
 6,0.00302310,0.00153609,0.00029408,-0.00223129,-0.00191129,-0.00048139
 ,0.00162435,0.00041922,-0.00003422,0.00001392,0.00026251,0.00011895,0.
 00257594,0.00825666,0.00166291,-0.00139407,-0.00014234,0.00009420,-0.0
 0015908,-0.00016861,0.00018875,-0.00004246,0.00013314,-0.00001993,0.00
 008143,0.00002087,-0.00002097,0.00003283,-0.00000802,-0.00001241,-0.00
 016597,0.00011321,-0.00016996,0.00008596,-0.00002109,0.00002088,-0.000
 02366,0.00001042,0.00011404,0.00005670,-0.00001669,-0.00005212,0.00431
 807,-0.00020912,-0.00044373,-0.00022421,0.00014411,-0.00012150,-0.0002
 5200,-0.00002536,0.00008882,-0.00004281,0.00012494,0.00003990,-0.00229
 579,0.00668352,0.00107016,0.00007888,0.00059621,-0.00234029,0.01375389
 ,-0.02963078,0.00481333,0.00207508,-0.00099042,-0.00408531,0.00453978,
 0.00108667,0.00090025,0.22310799,-0.65539459,-0.02486000,-0.00090964,-
 0.00006871,-0.00085121,0.00018419,0.00111004,0.00008285,-0.00078443,-0
 .00075414,-0.00158631,-0.22963358,0.77769408,0.00012270,0.00003273,-0.
 00024032,-0.00003870,0.00003308,0.00013022,-0.00004418,-0.00004762,0.0
 0003658,-0.00018946,-0.00006575,0.00013891,0.00000104,0.00000053,-0.00
 000343,0.00219140,-0.00139047,-0.00081098,-0.00034543,-0.00037242,-0.0
 0007343,-0.00067819,0.00078164,0.00030779,-0.00187177,-0.00303434,0.00
 172478,-0.00005354,-0.00003595,-0.00007747,-0.00000889,0.00012214,-0.0
 0012600,-0.00071688,0.00126203,0.00120257,-0.00074585,0.00027465,0.000
 07606,0.00061284,0.00012320,-0.00009998,-0.00034711,-0.00024218,0.0000
 3039,0.00024645,0.00006539,-0.00003698,0.00000633,0.00004660,-0.000012
 75,0.00148527,0.00335318,-0.00220317,-0.00020769,-0.00002427,0.0000091
 5,-0.00004118,-0.00003974,0.00002339,-0.00000742,0.00001946,-0.0000046
 7,0.00001521,0.00000675,-0.00001269,0.00001239,0.00000061,0.00000527,-
 0.00004187,0.00000727,-0.00005205,0.00001277,0.00000765,0.00001089,0.0
 0000030,0.00000378,0.00002547,0.00000717,-0.00001088,-0.00001080,0.000
 66446,-0.00005174,-0.00008068,-0.00004581,0.00001513,-0.00002196,-0.00
 003040,0.00001228,0.00000989,-0.00003844,0.00000519,-0.00001814,0.0006
 4980,-0.00385569,-0.00075012,-0.00081841,-0.00008479,0.00199813,0.0162
 6628,-0.01583368,0.01539885,0.00414959,-0.00335567,-0.00370626,-0.0000
 5193,0.00055116,0.00005679,0.02177386,-0.01245966,-0.08957046,-0.00024
 590,0.00042686,0.00030549,-0.00020553,-0.00073798,0.00009502,-0.000118
 31,-0.00026374,0.00002549,-0.03283427,-0.01690528,0.06904198,0.0001538
 5,0.00024314,0.00000586,-0.00005764,-0.00014897,-0.00003036,-0.0001028
 4,-0.00016012,-0.00000260,-0.00014974,-0.00012446,0.00001381,0.0000164
 9,0.00002997,0.00000098,-0.00065458,0.00162132,0.00054047,-0.00009341,
 -0.00022732,-0.00007942,-0.00027830,0.00057247,0.00018822,0.00055448,-
 0.00027307,-0.00019809,-0.00000978,-0.00003203,-0.00000006,-0.00000758
 ,0.00003302,0.00002200,0.00014214,-0.00146776,-0.00071481,-0.00013559,
 -0.00090118,-0.00023866,0.00000538,0.00050464,0.00018064,-0.00024165,-
 0.00036913,-0.00012701,0.00021853,0.00007564,0.00001128,-0.00001279,0.
 00003432,0.00002578,0.00011137,0.00046233,0.00009571,-0.00018687,0.000
 01076,0.00001099,0.00000089,0.00000974,0.00002989,-0.00000992,0.000009
 57,0.00000202,0.00001112,-0.00000848,-0.00000963,0.00001060,-0.0000005
 7,-0.00000210,0.00000516,0.00001559,0.00000182,0.00000789,-0.00000780,
 -0.00000882,-0.00000790,0.00000326,0.00000947,0.00000297,0.00001260,-0
 .00000137,0.00053306,-0.00001143,-0.00003220,-0.00001222,0.00004906,-0
 .00002973,-0.00003100,-0.00000422,0.00001036,0.00004612,0.00005110,0.0
 0001882,-0.00561040,0.00092564,0.00735552,-0.00016661,-0.00016104,-0.0
 0034137,0.00292912,-0.01763958,0.01981645,0.00169564,-0.00179249,-0.00
 113943,-0.00327392,-0.00202416,0.00119743,-0.13153998,-0.01243592,0.09
 100095,0.00011335,0.00005322,0.00059359,0.00015313,0.00189762,0.000080
 70,0.00077379,0.00123006,0.00065873,0.02465856,-0.00068135,-0.01360042
 ,0.22444359,0.00039616,0.00040027,-0.00028050,-0.00016938,-0.00015061,
 0.00008592,-0.00022117,-0.00029705,0.00003623,-0.00051888,-0.00026173,
 0.00016595,0.00003552,0.00003853,0.00000385,0.00269302,0.00023300,0.00
 002226,-0.00084002,-0.00093596,-0.00026068,-0.00131233,0.00206823,0.00
 070323,-0.00144325,-0.00359474,-0.00093098,-0.00009752,-0.00013353,-0.
 00002431,-0.00004413,0.00027403,0.00009143,-0.00120326,0.00010344,0.00
 006773,-0.00140015,-0.00084660,-0.00017708,0.00114720,0.00080352,0.000
 20462,-0.00098124,-0.00090636,-0.00025711,0.00074070,0.00019839,-0.000
 00195,-0.00000026,0.00011833,0.00006266,0.00358175,0.00650086,0.001199
 20,-0.00062296,-0.00005191,0.00004213,-0.00005709,-0.00005670,0.000089
 63,-0.00002147,0.00005609,-0.00000590,0.00003653,0.00000324,-0.0000111
 1,0.00001690,-0.00000446,-0.00000750,-0.00005873,0.00005414,-0.0000589
 6,0.00003704,-0.00001456,0.00000199,-0.00001391,0.00000516,0.00004703,
 0.00002432,0.00000072,-0.00002073,0.00190587,-0.00007746,-0.00018082,-
 0.00008746,0.00007902,-0.00006050,-0.00010948,-0.00001527,0.00003904,0
 .00001707,0.00007867,0.00002903,-0.00070959,0.00248641,0.00038167,0.00
 080446,-0.00021552,-0.00139985,0.00287016,0.00388263,0.00271419,-0.001
 35757,0.00059986,-0.00044166,-0.00202551,-0.00298936,0.00035141,-0.058
 37386,-0.15149997,0.09644455,0.00000173,-0.00003367,-0.00018620,0.0009
 1591,0.00246473,-0.00076220,0.00064183,0.00135493,-0.00012054,-0.01147
 436,-0.09357222,0.04625801,-0.13141538,0.61969373,-0.00025970,-0.00034
 772,0.00004924,0.00011731,0.00017757,0.00003233,0.00016592,0.00023639,
 -0.00000193,0.00031777,0.00019024,-0.00003088,-0.00003007,-0.00003600,
 -0.00000608,-0.00066445,-0.00142804,-0.00061919,0.00038101,0.00064974,
 0.00024324,0.00098089,-0.00130078,-0.00050518,0.00003721,0.00214909,0.
 00076216,0.00005760,0.00010239,0.00000407,-0.00001870,-0.00011072,-0.0
 0009307,0.00049190,0.00126842,0.00095924,0.00078179,0.00118702,0.00035
 391,-0.00049032,-0.00075620,-0.00030342,0.00061126,0.00068864,0.000267
 61,-0.00047893,-0.00013287,-0.00002992,0.00000899,-0.00006788,-0.00006
 796,-0.00121213,-0.00379540,-0.00084432,0.00042305,0.00002871,-0.00003
 354,0.00001629,0.00001699,-0.00006688,0.00001239,-0.00003767,0.0000018
 2,-0.00002081,0.00000362,-0.00000721,-0.00000116,0.00000824,0.00001486
 ,0.00001753,-0.00004819,0.00000611,-0.00002260,0.00001883,0.00000862,0
 .00001209,-0.00000082,-0.00002236,-0.00001334,-0.00001127,0.00001122,-
 0.00125726,0.00002660,0.00010781,0.00004888,-0.00006465,0.00004334,0.0
 0008052,0.00002964,-0.00003123,-0.00005475,-0.00007365,-0.00005061,0.0
 0850952,-0.00113923,-0.00614421,-0.00069312,-0.00002123,0.00168462,0.0
 1182261,0.02424805,-0.00490769,0.00288314,-0.00180345,-0.00068440,0.00
 063343,0.00054314,0.00049831,0.10781873,0.04954731,-0.17521097,-0.0001
 9198,0.00004561,-0.00020132,0.00039759,-0.00028059,-0.00139514,-0.0002
 7099,0.00004323,-0.00027149,-0.01042264,0.03755939,0.00855155,-0.15661
 988,-0.07817121,0.21662610,-0.00009019,-0.00023432,-0.00010752,0.00001
 333,0.00019891,0.00005665,0.00007519,0.00013838,0.00001620,0.00002164,
 0.00010256,0.00003184,-0.00000914,-0.00003398,0.00000382,0.00470580,-0
 .00206858,0.00012395,-0.00055181,-0.00017511,-0.00001039,-0.00043579,0
 .00048655,0.00017053,-0.00140722,0.00005887,-0.00027349,-0.00004936,-0
 .00002731,0.00000160,-0.00006441,0.00009960,0.00002577,-0.00685701,0.0
 0111072,-0.00023436,-0.00060781,0.00215673,0.00067822,0.00110143,-0.00
 071668,-0.00033519,-0.00016936,0.00025860,0.00008171,-0.00002233,-0.00
 005237,-0.00001195,0.00002759,0.00000990,-0.00000330,-0.00021202,0.002
 01645,0.00112229,0.00008523,-0.00004361,-0.00000232,-0.00004135,-0.000
 07341,-0.00003574,0.00002041,0.00001754,0.00000166,-0.00002703,0.00002
 728,0.00000914,-0.00000438,0.00001036,0.00000466,-0.00004438,-0.000011
 02,-0.00003386,-0.00000391,-0.00000443,0.00003275,0.00001362,0.0000007
 6,0.00000348,0.00001523,-0.00001755,0.00000026,-0.00020241,-0.00007071
 ,-0.00001942,-0.00000912,-0.00006069,0.00004427,0.00001393,0.00001506,
 -0.00000482,-0.00004423,-0.00008988,-0.00005417,-0.10258840,-0.0926743
 7,-0.09543233,-0.01420064,-0.01773989,-0.01671932,-0.01288641,-0.01339
 410,-0.00463153,0.00075773,0.00087538,0.00000539,0.00016565,-0.0002825
 0,0.00159246,-0.00110856,-0.00310114,-0.00039238,0.00012770,0.00012400
 ,0.00026517,0.00084260,0.00013117,-0.00037406,0.00013160,-0.00030252,-
 0.00026157,0.00120889,0.00096203,-0.00094119,0.00146789,0.00126316,-0.
 00144628,0.13082764,-0.00037569,-0.00037453,0.00029588,0.00017056,0.00
 015239,-0.00012455,0.00020223,0.00027676,-0.00003850,0.00046980,0.0002
 5986,-0.00017870,-0.00002832,-0.00003548,0.00000115,0.00662406,-0.0099
 4200,-0.00298104,-0.00027850,0.00043295,0.00013163,0.00033161,-0.00079
 630,-0.00014355,-0.00276374,0.00069019,0.00059360,0.00000200,0.0000461
 8,0.00000639,-0.00012837,0.00012952,0.00004705,-0.00377286,0.00327583,
 0.00294229,0.00020440,0.00435791,0.00095389,0.00087800,-0.00155624,-0.
 00075347,0.00046710,0.00106961,0.00032194,-0.00065502,-0.00021227,-0.0
 0001134,0.00004779,-0.00006384,-0.00000378,0.00124778,0.00102092,-0.00
 016907,0.00072342,0.00007968,-0.00004414,0.00009327,0.00010019,-0.0001
 0071,0.00002462,-0.00007077,0.00001373,-0.00005191,0.00000325,0.000012
 88,-0.00001791,0.00000253,0.00000460,0.00009556,-0.00006968,0.00009413
 ,-0.00005933,0.00002009,-0.00000408,0.00001752,0.00000016,-0.00006059,
 -0.00002983,0.00000285,0.00002564,-0.00221690,0.00007700,0.00019769,0.
 00009946,-0.00008802,0.00009024,0.00012906,0.00003356,-0.00003265,-0.0
 0028346,-0.00016449,-0.00000287,-0.12825639,-0.20949383,-0.12618543,0.
 01604937,0.01585792,0.01511154,-0.00856113,-0.01859415,-0.01580985,0.0
 0041738,0.00041527,-0.00067210,-0.00176136,-0.00315057,0.00353508,-0.0
 0058258,0.00250075,0.00095792,-0.00018433,0.00009789,-0.00002306,-0.00
 078253,-0.00046972,-0.00098999,0.00006838,0.00014678,0.00026715,0.0002
 1434,-0.00118501,-0.00098855,0.00098589,-0.00014822,-0.00094383,0.1214
 2370,0.21564838,-0.00022744,-0.00017961,0.00026782,0.00008636,0.000057
 40,-0.00014906,0.00010793,0.00014136,-0.00003796,0.00029493,0.00015512
 ,-0.00016067,-0.00001024,-0.00001538,0.00000392,0.00479197,-0.00533560
 ,-0.00152751,-0.00010572,0.00028676,0.00007701,0.00013485,-0.00050993,
 -0.00010751,-0.00177067,0.00078871,-0.00017353,0.00000195,0.00002972,0
 .00001042,-0.00008500,0.00008070,0.00003513,-0.00313798,0.00343217,-0.
 00231955,-0.00004263,0.00267590,0.00090118,0.00045922,-0.00078948,-0.0
 0007489,0.00026653,0.00064771,0.00012470,-0.00039366,-0.00013736,0.000
 02793,0.00002771,-0.00001979,-0.00001970,0.00085671,-0.00019417,0.0003
 9771,0.00045348,0.00003991,-0.00001545,0.00006966,0.00005788,-0.000073
 68,0.00002038,-0.00003419,0.00001020,-0.00003734,-0.00000687,0.0000470
 8,-0.00002946,-0.00000501,-0.00001259,0.00007960,-0.00000541,0.0001036
 4,-0.00002141,-0.00000890,-0.00001302,-0.00000280,-0.00001046,-0.00005
 239,-0.00001482,0.00000956,0.00001231,-0.00137460,0.00009222,0.0000872
 7,0.00008251,-0.00003450,0.00008470,0.00007275,-0.00000007,-0.00002269
 ,-0.00021648,-0.00013792,0.00006080,-0.13189978,-0.13129491,-0.1846307
 1,-0.00573377,-0.01694074,-0.01314034,0.01772773,0.01743352,0.01420403
 ,-0.00047128,0.00015815,0.00032018,0.00206541,0.00238931,-0.00275485,0
 .00038994,0.00368614,0.00150249,0.00027818,-0.00008943,-0.00003289,0.0
 0053105,0.00114744,0.00092032,-0.00029332,-0.00001146,-0.00011506,0.00
 012831,-0.00149261,-0.00076152,0.00009058,-0.00057446,-0.00074985,0.11
 690201,0.12454163,0.18735207,-0.00004020,-0.00006979,-0.00000190,0.000
 00886,0.00004845,0.00000329,0.00002648,0.00004543,-0.00000007,0.000029
 32,0.00003563,-0.00000821,-0.00000298,-0.00000999,0.00000109,0.0002137
 8,-0.00037165,-0.00009359,-0.00001592,0.00004437,0.00001147,0.00008446
 ,-0.00008109,-0.00002468,-0.00014411,0.00013935,-0.00002068,0.00000144
 ,0.00000668,0.00000357,-0.00000835,0.00000540,0.00000712,-0.00010497,0
 .00034723,0.00005930,0.00000218,0.00021419,0.00005245,0.00003695,-0.00
 013881,-0.00003487,0.00003753,0.00008246,0.00001724,-0.00003880,-0.000
 01915,0.00000134,0.00000396,-0.00000830,-0.00000160,0.00013077,-0.0000
 9570,0.00009284,0.00003036,-0.00001358,0.00000058,-0.00000224,-0.00000
 753,-0.00000454,0.00000282,0.00000162,-0.00000091,-0.00000133,0.000002
 67,0.00001032,-0.00000693,-0.00000290,-0.00000341,-0.00000462,0.000004
 18,0.00000190,0.00000063,-0.00000115,0.00000262,0.00000123,-0.00000282
 ,-0.00000224,0.00000118,-0.00000451,-0.00000166,-0.00007358,0.00000490
 ,-0.00000174,-0.00000081,-0.00001561,0.00001022,0.00000341,-0.00000520
 ,-0.00000104,-0.00000797,-0.00001293,0.00000312,-0.00047533,0.00057997
 ,-0.00121499,0.00021457,0.00037914,-0.00003970,0.00023592,-0.00242144,
 0.00294977,-0.00200724,0.00027624,-0.00019173,0.00005822,0.00116252,0.
 00032418,0.00457070,-0.01830738,-0.00660175,-0.00006316,-0.00003585,-0
 .00039125,0.00041708,-0.00075603,0.00014290,-0.00019336,-0.00029545,0.
 00011347,0.00340397,-0.00370581,0.00605091,-0.11547241,0.19742960,0.03
 754169,0.00001418,-0.00019715,-0.00005134,0.10913431,-0.00006262,-0.00
 008346,0.00001841,0.00002421,0.00004580,-0.00000061,0.00003913,0.00005
 716,-0.00000187,0.00006472,0.00004605,-0.00001721,-0.00000643,-0.00000
 990,-0.00000027,0.00018176,-0.00053158,-0.00014184,0.00004478,0.000069
 82,0.00002006,0.00007474,-0.00017191,-0.00005391,-0.00015138,0.0002045
 9,-0.00004368,0.00000329,0.00000730,0.00000328,-0.00000088,-0.00000864
 ,0.00000187,-0.00004117,0.00045566,0.00013937,0.00006780,0.00027912,0.
 00007060,-0.00002342,-0.00016343,-0.00004635,0.00009470,0.00012646,0.0
 0003335,-0.00008876,-0.00003003,0.00000006,0.00000252,-0.00001402,-0.0
 0000612,0.00010574,-0.00016214,0.00025048,0.00007592,-0.00000108,-0.00
 000395,0.00000253,-0.00000124,-0.00001216,0.00000523,-0.00000369,-0.00
 000089,-0.00000613,0.00000275,0.00000587,-0.00000621,0.00000011,-0.000
 00014,0.00000129,-0.00000637,0.00000374,-0.00000408,0.00000244,0.00000
 216,0.00000322,-0.00000119,-0.00000532,-0.00000206,-0.00000304,0.00000
 133,-0.00022379,0.00000698,0.00001582,0.00000686,-0.00001722,0.0000109
 0,0.00001130,-0.00000091,-0.00000319,-0.00001299,-0.00001852,-0.000003
 37,0.00072540,0.00000640,-0.00147440,0.00008921,0.00017526,-0.00017526
 ,-0.00070531,0.00230292,0.00022347,-0.00086775,0.00058683,0.00019050,0
 .00110393,0.00124526,-0.00056338,0.01729646,-0.03416654,-0.00776616,-0
 .00018264,-0.00028662,-0.00000909,-0.00017909,-0.00033451,-0.00084822,
 -0.00008457,-0.00028334,-0.00013619,-0.00388719,-0.00007430,0.00639108
 ,0.16105548,-0.38569203,-0.02819751,-0.00031355,-0.00028329,-0.0000230
 6,-0.17423022,0.41672811,-0.00000043,0.00002784,0.00005181,-0.00000520
 ,-0.00002352,-0.00003720,-0.00000835,-0.00001309,-0.00000897,0.0000040
 8,-0.00000415,-0.00003217,0.00000361,0.00000276,0.00000242,-0.00041230
 ,0.00045143,0.00020525,0.00001225,0.00002117,-0.00001005,0.00008796,-0
 .00001312,0.00000060,0.00028866,0.00029281,-0.00005171,0.00000719,0.00
 000305,0.00000890,-0.00000091,-0.00000638,0.00001040,0.00010334,-0.000
 45469,-0.00035562,0.00006471,-0.00018223,-0.00007104,-0.00006466,0.000
 04993,0.00005099,0.00000056,-0.00002375,-0.00003637,0.00000483,0.00000
 020,0.00001271,-0.00000120,-0.00000243,0.00001159,-0.00029803,-0.00053
 116,0.00006416,-0.00000530,-0.00000260,0.00000337,0.00000785,0.0000064
 5,0.00000399,0.00000121,0.00000178,0.00000146,-0.00000175,-0.00000147,
 0.00000843,-0.00000488,-0.00000347,-0.00000544,0.00000668,0.00000728,0
 .00001417,-0.00000078,-0.00000482,-0.00000346,-0.00000080,-0.00000141,
 -0.00000338,-0.00000004,0.00000345,0.00000028,0.00001082,0.00001051,0.
 00000176,0.00000257,0.00000214,0.00000104,-0.00000238,-0.00000882,0.00
 000228,0.00001479,0.00000645,0.00001354,-0.00102068,-0.00109468,0.0002
 8890,-0.00008638,0.00008693,0.00002632,0.00215664,0.00125315,-0.001636
 84,0.00031057,0.00034884,0.00007814,0.00073323,0.00195128,-0.00131549,
 -0.01951687,0.02649714,0.00265058,-0.00018074,-0.00028135,0.00043354,-
 0.00046925,-0.00247193,-0.00145660,-0.00027583,-0.00073091,0.00059942,
 0.00587940,0.00767132,-0.00053082,0.05121386,-0.06510753,-0.03794734,0
 .00015141,0.00011579,0.00039452,-0.03870946,0.03215180,0.03856192\\-0.
 00000010,0.00000021,0.00000089,0.00000019,-0.00000009,-0.00000015,0.00
 000009,-0.00000012,0.00000018,0.00000017,-0.00000001,-0.00000020,0.000
 00018,0.,0.00000026,0.00000004,-0.00000069,-0.00000043,-0.00000011,0.0
 0000009,-0.00000024,-0.00000007,0.00000014,-0.00000031,-0.00000020,0.0
 0000008,-0.00000031,0.,0.00000006,-0.00000027,-0.00000002,0.00000011,-
 0.00000040,-0.00000004,0.00000018,-0.00000018,-0.00000925,-0.00009415,
 -0.00014775,-0.00000019,0.00000070,0.00000004,-0.00000007,-0.00000008,
 -0.00000007,-0.00177128,0.00370720,0.00110031,0.,-0.00000005,-0.000000
 10,0.,0.00000009,-0.00000037,-0.00001702,-0.00008861,-0.00013753,-0.00
 000006,-0.00000001,0.00000010,-0.00000004,-0.00000007,0.00000018,-0.00
 000001,-0.00000004,0.00000006,-0.00000011,-0.00000010,0.00000010,0.000
 00014,0.,0.00000022,0.00000015,0.00000006,0.00000007,0.00000014,0.0000
 0002,0.00000020,0.00000018,0.00000003,0.00000014,0.00179784,-0.0035267
 1,-0.00080830,-0.00000001,0.00000002,0.,-0.00000013,-0.00000003,0.0000
 0002,-0.00000010,-0.00000002,-0.00000005,0.00000009,0.00000015,-0.0000
 0025,0.00000003,0.00000017,-0.00000039,0.00000025,0.00000021,-0.000000
 69,-0.00000012,0.00000007,-0.00000038,0.00000003,0.00000007,-0.0000005
 4,-0.00000019,0.00000046,-0.00000055,0.00000003,0.00000024,-0.00000056
 ,-0.00000006,0.00000015,-0.00000056,0.00000004,0.00000019,-0.00000046,
 0.,0.00000006,-0.00000047,-0.00000023,-0.00000008,-0.00000036,-0.00000
 003,0.00000005,-0.00000033,-0.00000014,0.00000007,-0.00000057\\\@


 Children are likely to live up to what you believe of them.
 -- Lady Bird Johnson
 Job cpu time:       0 days  1 hours 52 minutes 35.6 seconds.
 File lengths (MBytes):  RWF=    791 Int=      0 D2E=      0 Chk=     13 Scr=      1
 Normal termination of Gaussian 09 at Fri Apr  9 05:27:31 2021.
