 Entering Gaussian System, Link 0=g09
 Initial command:
 /opt/software/gaussian/g09.e01/l1.exe "/localscratch/enas93.65576202.0/Gau-182736.inp" -scrdir="/localscratch/enas93.65576202.0/"
 Entering Link 1 = /opt/software/gaussian/g09.e01/l1.exe PID=    182737.
  
 Copyright (c) 1988,1990,1992,1993,1995,1998,2003,2009,2015,
            Gaussian, Inc.  All Rights Reserved.
  
 This is part of the Gaussian(R) 09 program.  It is based on
 the Gaussian(R) 03 system (copyright 2003, Gaussian, Inc.),
 the Gaussian(R) 98 system (copyright 1998, Gaussian, Inc.),
 the Gaussian(R) 94 system (copyright 1995, Gaussian, Inc.),
 the Gaussian 92(TM) system (copyright 1992, Gaussian, Inc.),
 the Gaussian 90(TM) system (copyright 1990, Gaussian, Inc.),
 the Gaussian 88(TM) system (copyright 1988, Gaussian, Inc.),
 the Gaussian 86(TM) system (copyright 1986, Carnegie Mellon
 University), and the Gaussian 82(TM) system (copyright 1983,
 Carnegie Mellon University). Gaussian is a federally registered
 trademark of Gaussian, Inc.
  
 This software contains proprietary and confidential information,
 including trade secrets, belonging to Gaussian, Inc.
  
 This software is provided under written license and may be
 used, copied, transmitted, or stored only in accord with that
 written license.
  
 The following legend is applicable only to US Government
 contracts under FAR:
  
                    RESTRICTED RIGHTS LEGEND
  
 Use, reproduction and disclosure by the US Government is
 subject to restrictions as set forth in subparagraphs (a)
 and (c) of the Commercial Computer Software - Restricted
 Rights clause in FAR 52.227-19.
  
 Gaussian, Inc.
 340 Quinnipiac St., Bldg. 40, Wallingford CT 06492
  
  
 ---------------------------------------------------------------
 Warning -- This program may not be used in any manner that
 competes with the business of Gaussian, Inc. or will provide
 assistance to any competitor of Gaussian, Inc.  The licensee
 of this program is prohibited from giving any competitor of
 Gaussian, Inc. access to this program.  By using this program,
 the user acknowledges that Gaussian, Inc. is engaged in the
 business of creating and licensing software in the field of
 computational chemistry and represents and warrants to the
 licensee that it is not a competitor of Gaussian, Inc. and that
 it will not use this program in any manner prohibited above.
 ---------------------------------------------------------------
  

 Cite this work as:
 Gaussian 09, Revision E.01,
 M. J. Frisch, G. W. Trucks, H. B. Schlegel, G. E. Scuseria, 
 M. A. Robb, J. R. Cheeseman, G. Scalmani, V. Barone, B. Mennucci, 
 G. A. Petersson, H. Nakatsuji, M. Caricato, X. Li, H. P. Hratchian, 
 A. F. Izmaylov, J. Bloino, G. Zheng, J. L. Sonnenberg, M. Hada, 
 M. Ehara, K. Toyota, R. Fukuda, J. Hasegawa, M. Ishida, T. Nakajima, 
 Y. Honda, O. Kitao, H. Nakai, T. Vreven, J. A. Montgomery, Jr., 
 J. E. Peralta, F. Ogliaro, M. Bearpark, J. J. Heyd, E. Brothers, 
 K. N. Kudin, V. N. Staroverov, T. Keith, R. Kobayashi, J. Normand, 
 K. Raghavachari, A. Rendell, J. C. Burant, S. S. Iyengar, J. Tomasi, 
 M. Cossi, N. Rega, J. M. Millam, M. Klene, J. E. Knox, J. B. Cross, 
 V. Bakken, C. Adamo, J. Jaramillo, R. Gomperts, R. E. Stratmann, 
 O. Yazyev, A. J. Austin, R. Cammi, C. Pomelli, J. W. Ochterski, 
 R. L. Martin, K. Morokuma, V. G. Zakrzewski, G. A. Voth, 
 P. Salvador, J. J. Dannenberg, S. Dapprich, A. D. Daniels, 
 O. Farkas, J. B. Foresman, J. V. Ortiz, J. Cioslowski, 
 and D. J. Fox, Gaussian, Inc., Wallingford CT, 2013.
 
 ******************************************
 Gaussian 09:  EM64L-G09RevE.01 30-Nov-2015
                 4-Apr-2021 
 ******************************************
 %nprocshared=16
 Will use up to   16 processors via shared memory.
 %mem=10GB
 -----------------------------------------------------
 # opt=(tight,modredundant) freq b3lyp/6-31g(d) nosymm
 -----------------------------------------------------
 1/7=10,14=-1,18=120,19=15,26=3,38=1/1,3;
 2/9=110,12=2,15=1,17=6,18=5,40=1/2;
 3/5=1,6=6,7=1,11=2,16=1,25=1,30=1,71=1,74=-5/1,2,3;
 4//1;
 5/5=2,38=5/2;
 6/7=2,8=2,9=2,10=2,28=1/1;
 7/30=1/1,2,3,16;
 1/7=10,14=-1,18=20,19=15,26=3/3(2);
 2/9=110,15=1/2;
 99//99;
 2/9=110,15=1/2;
 3/5=1,6=6,7=1,11=2,16=1,25=1,30=1,71=1,74=-5/1,2,3;
 4/5=5,16=3,69=1/1;
 5/5=2,38=5/2;
 7/30=1/1,2,3,16;
 1/7=10,14=-1,18=20,19=15,26=3/3(-5);
 2/9=110,15=1/2;
 6/7=2,8=2,9=2,10=2,19=2,28=1/1;
 99/9=1/99;
 -------------------
 Title Card Required
 -------------------
 Symbolic Z-matrix:
 Charge =  1 Multiplicity = 1
 C                     0.69248  -0.11367   0.28181 
 C                     2.30805  -2.31287  -0.47877 
 C                     2.84443  -1.14179  -0.03892 
 N                     2.07371  -0.10049   0.3204 
 H                     2.92531  -3.15181  -0.76689 
 H                     3.91487  -0.98952   0.0445 
 O                     0.00729   0.81883   0.60845 
 N                     0.13753  -1.33741  -0.17969 
 C                     0.8938   -2.39926  -0.54443 
 N                     0.28704  -3.50926  -0.96024 
 H                    -0.71874  -3.60197  -1.01147 
 H                     0.84098  -4.30972  -1.2321 
 H                     2.48314   0.79828   0.65864 
 S                    -4.48635  -2.3518   -0.61817 
 C                    -5.65582  -2.30888  -2.00312 
 H                    -6.09183  -3.29616  -2.16971 
 H                    -6.44663  -1.58075  -1.81123 
 H                    -5.10636  -2.00701  -2.89624 
 C                    -5.62299  -2.85881   0.70055 
 H                    -6.41525  -2.11785   0.82589 
 H                    -6.05868  -3.83545   0.47947 
 H                    -5.05182  -2.92554   1.62798 
 C                    -1.32601  -1.42738  -0.2458 
 H                    -1.68192  -2.22578   0.40994 
 H                    -1.64388  -1.61212  -1.27471 
 H                    -1.7355   -0.4781    0.08995 
 N                     2.46493   4.78295   2.60818 
 H                     3.43381   4.50641   2.75654 
 C                     2.13039   4.6443    1.21239 
 H                     1.07078   4.90669   1.08456 
 C                     2.98426   5.60323   0.37197 
 C                     2.30037   3.22315   0.68031 
 H                     4.04362   5.34377   0.4643 
 H                     2.72182   5.58375  -0.68987 
 H                     2.84289   6.61636   0.75038 
 O                     2.84779   2.33527   1.30287 
 O                     1.84294   2.95999  -0.54948 
 H                     1.89909   4.15643   3.17549 
 H                     1.38735   3.73058  -0.92549 
 
 Add virtual bond connecting atoms O36        and H13        Dist= 3.22D+00.
 Add virtual bond connecting atoms H24        and S14        Dist= 5.65D+00.
 Add virtual bond connecting atoms H25        and S14        Dist= 5.69D+00.
 The following ModRedundant input section has been read:
 A       8      23      14 F                                                   
 

 GradGradGradGradGradGradGradGradGradGradGradGradGradGradGradGradGradGrad
 Berny optimization.
 Initialization pass.
                           ----------------------------
                           !    Initial Parameters    !
                           ! (Angstroms and Degrees)  !
 --------------------------                            --------------------------
 ! Name  Definition              Value          Derivative Info.                !
 --------------------------------------------------------------------------------
 ! R1    R(1,4)                  1.3818         estimate D2E/DX2                !
 ! R2    R(1,7)                  1.2024         estimate D2E/DX2                !
 ! R3    R(1,8)                  1.4207         estimate D2E/DX2                !
 ! R4    R(2,3)                  1.3611         estimate D2E/DX2                !
 ! R5    R(2,5)                  1.0807         estimate D2E/DX2                !
 ! R6    R(2,9)                  1.4184         estimate D2E/DX2                !
 ! R7    R(3,4)                  1.3444         estimate D2E/DX2                !
 ! R8    R(3,6)                  1.0844         estimate D2E/DX2                !
 ! R9    R(4,13)                 1.0439         estimate D2E/DX2                !
 ! R10   R(8,9)                  1.3537         estimate D2E/DX2                !
 ! R11   R(8,23)                 1.4678         estimate D2E/DX2                !
 ! R12   R(9,10)                 1.3316         estimate D2E/DX2                !
 ! R13   R(10,11)                1.0113         estimate D2E/DX2                !
 ! R14   R(10,12)                1.0107         estimate D2E/DX2                !
 ! R15   R(13,36)                1.706          estimate D2E/DX2                !
 ! R16   R(14,15)                1.8132         estimate D2E/DX2                !
 ! R17   R(14,19)                1.8133         estimate D2E/DX2                !
 ! R18   R(14,24)                2.9896         estimate D2E/DX2                !
 ! R19   R(14,25)                3.0096         estimate D2E/DX2                !
 ! R20   R(15,16)                1.092          estimate D2E/DX2                !
 ! R21   R(15,17)                1.092          estimate D2E/DX2                !
 ! R22   R(15,18)                1.0912         estimate D2E/DX2                !
 ! R23   R(19,20)                1.092          estimate D2E/DX2                !
 ! R24   R(19,21)                1.092          estimate D2E/DX2                !
 ! R25   R(19,22)                1.0913         estimate D2E/DX2                !
 ! R26   R(23,24)                1.0928         estimate D2E/DX2                !
 ! R27   R(23,25)                1.0926         estimate D2E/DX2                !
 ! R28   R(23,26)                1.087          estimate D2E/DX2                !
 ! R29   R(27,28)                1.0184         estimate D2E/DX2                !
 ! R30   R(27,29)                1.442          estimate D2E/DX2                !
 ! R31   R(27,38)                1.0171         estimate D2E/DX2                !
 ! R32   R(29,30)                1.0991         estimate D2E/DX2                !
 ! R33   R(29,31)                1.5346         estimate D2E/DX2                !
 ! R34   R(29,32)                1.527          estimate D2E/DX2                !
 ! R35   R(31,33)                1.0946         estimate D2E/DX2                !
 ! R36   R(31,34)                1.094          estimate D2E/DX2                !
 ! R37   R(31,35)                1.0907         estimate D2E/DX2                !
 ! R38   R(32,36)                1.2147         estimate D2E/DX2                !
 ! R39   R(32,37)                1.3382         estimate D2E/DX2                !
 ! R40   R(37,39)                0.971          estimate D2E/DX2                !
 ! A1    A(4,1,7)              123.6853         estimate D2E/DX2                !
 ! A2    A(4,1,8)              114.0619         estimate D2E/DX2                !
 ! A3    A(7,1,8)              122.2527         estimate D2E/DX2                !
 ! A4    A(3,2,5)              121.9378         estimate D2E/DX2                !
 ! A5    A(3,2,9)              117.4058         estimate D2E/DX2                !
 ! A6    A(5,2,9)              120.6562         estimate D2E/DX2                !
 ! A7    A(2,3,4)              121.7935         estimate D2E/DX2                !
 ! A8    A(2,3,6)              122.3213         estimate D2E/DX2                !
 ! A9    A(4,3,6)              115.8852         estimate D2E/DX2                !
 ! A10   A(1,4,3)              123.9303         estimate D2E/DX2                !
 ! A11   A(1,4,13)             114.1596         estimate D2E/DX2                !
 ! A12   A(3,4,13)             121.91           estimate D2E/DX2                !
 ! A13   A(1,8,9)              123.0207         estimate D2E/DX2                !
 ! A14   A(1,8,23)             117.1877         estimate D2E/DX2                !
 ! A15   A(9,8,23)             119.7906         estimate D2E/DX2                !
 ! A16   A(2,9,8)              119.7871         estimate D2E/DX2                !
 ! A17   A(2,9,10)             121.3023         estimate D2E/DX2                !
 ! A18   A(8,9,10)             118.9106         estimate D2E/DX2                !
 ! A19   A(9,10,11)            123.0513         estimate D2E/DX2                !
 ! A20   A(9,10,12)            119.6337         estimate D2E/DX2                !
 ! A21   A(11,10,12)           117.3119         estimate D2E/DX2                !
 ! A22   A(15,14,19)            99.0797         estimate D2E/DX2                !
 ! A23   A(15,14,24)           150.0793         estimate D2E/DX2                !
 ! A24   A(15,14,25)           115.8949         estimate D2E/DX2                !
 ! A25   A(19,14,24)           110.469          estimate D2E/DX2                !
 ! A26   A(19,14,25)           145.024          estimate D2E/DX2                !
 ! A27   A(24,14,25)            34.7846         estimate D2E/DX2                !
 ! A28   A(14,15,16)           110.6486         estimate D2E/DX2                !
 ! A29   A(14,15,17)           110.4055         estimate D2E/DX2                !
 ! A30   A(14,15,18)           107.8753         estimate D2E/DX2                !
 ! A31   A(16,15,17)           109.9077         estimate D2E/DX2                !
 ! A32   A(16,15,18)           109.0434         estimate D2E/DX2                !
 ! A33   A(17,15,18)           108.9068         estimate D2E/DX2                !
 ! A34   A(14,19,20)           110.3983         estimate D2E/DX2                !
 ! A35   A(14,19,21)           110.6661         estimate D2E/DX2                !
 ! A36   A(14,19,22)           107.8836         estimate D2E/DX2                !
 ! A37   A(20,19,21)           109.9151         estimate D2E/DX2                !
 ! A38   A(20,19,22)           108.8863         estimate D2E/DX2                !
 ! A39   A(21,19,22)           109.0374         estimate D2E/DX2                !
 ! A40   A(8,23,14)            166.6808         Frozen                          !
 ! A41   A(8,23,24)            110.0302         estimate D2E/DX2                !
 ! A42   A(8,23,25)            110.0513         estimate D2E/DX2                !
 ! A43   A(8,23,26)            107.95           estimate D2E/DX2                !
 ! A44   A(24,23,25)           110.2915         estimate D2E/DX2                !
 ! A45   A(24,23,26)           109.27           estimate D2E/DX2                !
 ! A46   A(25,23,26)           109.2038         estimate D2E/DX2                !
 ! A47   A(14,24,23)            97.4673         estimate D2E/DX2                !
 ! A48   A(14,25,23)            96.3671         estimate D2E/DX2                !
 ! A49   A(28,27,29)           109.6089         estimate D2E/DX2                !
 ! A50   A(28,27,38)           106.3043         estimate D2E/DX2                !
 ! A51   A(29,27,38)           110.5848         estimate D2E/DX2                !
 ! A52   A(27,29,30)           108.2574         estimate D2E/DX2                !
 ! A53   A(27,29,31)           109.9339         estimate D2E/DX2                !
 ! A54   A(27,29,32)           113.6373         estimate D2E/DX2                !
 ! A55   A(30,29,31)           108.8785         estimate D2E/DX2                !
 ! A56   A(30,29,32)           106.7971         estimate D2E/DX2                !
 ! A57   A(31,29,32)           109.1961         estimate D2E/DX2                !
 ! A58   A(29,31,33)           110.133          estimate D2E/DX2                !
 ! A59   A(29,31,34)           112.7655         estimate D2E/DX2                !
 ! A60   A(29,31,35)           108.5609         estimate D2E/DX2                !
 ! A61   A(33,31,34)           108.0495         estimate D2E/DX2                !
 ! A62   A(33,31,35)           108.4433         estimate D2E/DX2                !
 ! A63   A(34,31,35)           108.7961         estimate D2E/DX2                !
 ! A64   A(29,32,36)           123.4942         estimate D2E/DX2                !
 ! A65   A(29,32,37)           117.7219         estimate D2E/DX2                !
 ! A66   A(36,32,37)           118.7688         estimate D2E/DX2                !
 ! A67   A(13,36,32)           111.6333         estimate D2E/DX2                !
 ! A68   A(32,37,39)           111.1127         estimate D2E/DX2                !
 ! A69   L(4,13,36,7,-1)       169.3002         estimate D2E/DX2                !
 ! A70   L(4,13,36,7,-2)       177.6229         estimate D2E/DX2                !
 ! D1    D(7,1,4,3)            179.745          estimate D2E/DX2                !
 ! D2    D(7,1,4,13)            -0.1528         estimate D2E/DX2                !
 ! D3    D(8,1,4,3)             -0.1443         estimate D2E/DX2                !
 ! D4    D(8,1,4,13)           179.9578         estimate D2E/DX2                !
 ! D5    D(4,1,8,9)              0.2582         estimate D2E/DX2                !
 ! D6    D(4,1,8,23)           179.8928         estimate D2E/DX2                !
 ! D7    D(7,1,8,9)           -179.6329         estimate D2E/DX2                !
 ! D8    D(7,1,8,23)             0.0017         estimate D2E/DX2                !
 ! D9    D(5,2,3,4)           -179.9142         estimate D2E/DX2                !
 ! D10   D(5,2,3,6)              0.0424         estimate D2E/DX2                !
 ! D11   D(9,2,3,4)             -0.0769         estimate D2E/DX2                !
 ! D12   D(9,2,3,6)            179.8797         estimate D2E/DX2                !
 ! D13   D(3,2,9,8)              0.1857         estimate D2E/DX2                !
 ! D14   D(3,2,9,10)          -179.8357         estimate D2E/DX2                !
 ! D15   D(5,2,9,8)           -179.9748         estimate D2E/DX2                !
 ! D16   D(5,2,9,10)             0.0037         estimate D2E/DX2                !
 ! D17   D(2,3,4,1)              0.0652         estimate D2E/DX2                !
 ! D18   D(2,3,4,13)           179.9554         estimate D2E/DX2                !
 ! D19   D(6,3,4,1)           -179.894          estimate D2E/DX2                !
 ! D20   D(6,3,4,13)            -0.0038         estimate D2E/DX2                !
 ! D21   D(1,4,36,32)          -51.3904         estimate D2E/DX2                !
 ! D22   D(3,4,36,32)          130.3353         estimate D2E/DX2                !
 ! D23   D(1,8,9,2)             -0.2879         estimate D2E/DX2                !
 ! D24   D(1,8,9,10)           179.7331         estimate D2E/DX2                !
 ! D25   D(23,8,9,2)          -179.9133         estimate D2E/DX2                !
 ! D26   D(23,8,9,10)            0.1076         estimate D2E/DX2                !
 ! D27   D(1,8,23,24)         -118.9972         estimate D2E/DX2                !
 ! D28   D(1,8,23,25)          119.2671         estimate D2E/DX2                !
 ! D29   D(1,8,23,26)            0.1689         estimate D2E/DX2                !
 ! D30   D(9,8,23,24)           60.6498         estimate D2E/DX2                !
 ! D31   D(9,8,23,25)          -61.0859         estimate D2E/DX2                !
 ! D32   D(9,8,23,26)          179.8159         estimate D2E/DX2                !
 ! D33   D(2,9,10,11)          179.5703         estimate D2E/DX2                !
 ! D34   D(2,9,10,12)            0.2352         estimate D2E/DX2                !
 ! D35   D(8,9,10,11)           -0.451          estimate D2E/DX2                !
 ! D36   D(8,9,10,12)         -179.786          estimate D2E/DX2                !
 ! D37   D(19,14,15,16)        -61.016          estimate D2E/DX2                !
 ! D38   D(19,14,15,17)         60.8837         estimate D2E/DX2                !
 ! D39   D(19,14,15,18)        179.7808         estimate D2E/DX2                !
 ! D40   D(24,14,15,16)        109.9765         estimate D2E/DX2                !
 ! D41   D(24,14,15,17)       -128.1238         estimate D2E/DX2                !
 ! D42   D(24,14,15,18)         -9.2267         estimate D2E/DX2                !
 ! D43   D(25,14,15,16)        119.3021         estimate D2E/DX2                !
 ! D44   D(25,14,15,17)       -118.7982         estimate D2E/DX2                !
 ! D45   D(25,14,15,18)          0.0989         estimate D2E/DX2                !
 ! D46   D(15,14,19,20)        -60.8137         estimate D2E/DX2                !
 ! D47   D(15,14,19,21)         61.1022         estimate D2E/DX2                !
 ! D48   D(15,14,19,22)       -179.6868         estimate D2E/DX2                !
 ! D49   D(24,14,19,20)        123.9679         estimate D2E/DX2                !
 ! D50   D(24,14,19,21)       -114.1163         estimate D2E/DX2                !
 ! D51   D(24,14,19,22)          5.0948         estimate D2E/DX2                !
 ! D52   D(25,14,19,20)        118.6871         estimate D2E/DX2                !
 ! D53   D(25,14,19,21)       -119.3971         estimate D2E/DX2                !
 ! D54   D(25,14,19,22)         -0.186          estimate D2E/DX2                !
 ! D55   D(15,14,24,23)         40.1161         estimate D2E/DX2                !
 ! D56   D(19,14,24,23)       -149.3823         estimate D2E/DX2                !
 ! D57   D(25,14,24,23)         25.3114         estimate D2E/DX2                !
 ! D58   D(15,14,25,23)        162.8936         estimate D2E/DX2                !
 ! D59   D(19,14,25,23)        -16.5584         estimate D2E/DX2                !
 ! D60   D(24,14,25,23)        -25.2516         estimate D2E/DX2                !
 ! D61   D(8,23,24,14)        -167.3417         estimate D2E/DX2                !
 ! D62   D(25,23,24,14)        -45.749          estimate D2E/DX2                !
 ! D63   D(26,23,24,14)         74.302          estimate D2E/DX2                !
 ! D64   D(8,23,25,14)         166.8046         estimate D2E/DX2                !
 ! D65   D(24,23,25,14)         45.2244         estimate D2E/DX2                !
 ! D66   D(26,23,25,14)        -74.8665         estimate D2E/DX2                !
 ! D67   D(28,27,29,30)        177.6194         estimate D2E/DX2                !
 ! D68   D(28,27,29,31)        -63.5599         estimate D2E/DX2                !
 ! D69   D(28,27,29,32)         59.1588         estimate D2E/DX2                !
 ! D70   D(38,27,29,30)         60.7377         estimate D2E/DX2                !
 ! D71   D(38,27,29,31)        179.5584         estimate D2E/DX2                !
 ! D72   D(38,27,29,32)        -57.7229         estimate D2E/DX2                !
 ! D73   D(27,29,31,33)         62.9979         estimate D2E/DX2                !
 ! D74   D(27,29,31,34)       -176.223          estimate D2E/DX2                !
 ! D75   D(27,29,31,35)        -55.5921         estimate D2E/DX2                !
 ! D76   D(30,29,31,33)       -178.5636         estimate D2E/DX2                !
 ! D77   D(30,29,31,34)        -57.7845         estimate D2E/DX2                !
 ! D78   D(30,29,31,35)         62.8463         estimate D2E/DX2                !
 ! D79   D(32,29,31,33)        -62.3033         estimate D2E/DX2                !
 ! D80   D(32,29,31,34)         58.4758         estimate D2E/DX2                !
 ! D81   D(32,29,31,35)        179.1067         estimate D2E/DX2                !
 ! D82   D(27,29,32,36)        -10.3221         estimate D2E/DX2                !
 ! D83   D(27,29,32,37)        171.1113         estimate D2E/DX2                !
 ! D84   D(30,29,32,36)       -129.6189         estimate D2E/DX2                !
 ! D85   D(30,29,32,37)         51.8144         estimate D2E/DX2                !
 ! D86   D(31,29,32,36)        112.8016         estimate D2E/DX2                !
 ! D87   D(31,29,32,37)        -65.7651         estimate D2E/DX2                !
 ! D88   D(29,32,36,13)        163.389          estimate D2E/DX2                !
 ! D89   D(37,32,36,13)        -18.0584         estimate D2E/DX2                !
 ! D90   D(29,32,37,39)         -4.2906         estimate D2E/DX2                !
 ! D91   D(36,32,37,39)        177.073          estimate D2E/DX2                !
 --------------------------------------------------------------------------------
 Trust Radius=3.00D-01 FncErr=1.00D-07 GrdErr=1.00D-06
 Number of steps in this run=    211 maximum allowed number of steps=    234.
 GradGradGradGradGradGradGradGradGradGradGradGradGradGradGradGradGradGrad

                          Input orientation:                          
 ---------------------------------------------------------------------
 Center     Atomic      Atomic             Coordinates (Angstroms)
 Number     Number       Type             X           Y           Z
 ---------------------------------------------------------------------
      1          6           0        0.692481   -0.113665    0.281810
      2          6           0        2.308047   -2.312870   -0.478767
      3          6           0        2.844430   -1.141790   -0.038923
      4          7           0        2.073706   -0.100491    0.320397
      5          1           0        2.925313   -3.151812   -0.766891
      6          1           0        3.914872   -0.989519    0.044497
      7          8           0        0.007293    0.818832    0.608446
      8          7           0        0.137525   -1.337405   -0.179689
      9          6           0        0.893797   -2.399263   -0.544431
     10          7           0        0.287044   -3.509260   -0.960236
     11          1           0       -0.718735   -3.601972   -1.011471
     12          1           0        0.840983   -4.309722   -1.232100
     13          1           0        2.483136    0.798275    0.658640
     14         16           0       -4.486348   -2.351802   -0.618170
     15          6           0       -5.655822   -2.308883   -2.003119
     16          1           0       -6.091827   -3.296158   -2.169710
     17          1           0       -6.446627   -1.580745   -1.811230
     18          1           0       -5.106361   -2.007014   -2.896237
     19          6           0       -5.622989   -2.858807    0.700548
     20          1           0       -6.415245   -2.117852    0.825893
     21          1           0       -6.058676   -3.835452    0.479471
     22          1           0       -5.051816   -2.925544    1.627984
     23          6           0       -1.326005   -1.427376   -0.245797
     24          1           0       -1.681916   -2.225779    0.409944
     25          1           0       -1.643879   -1.612118   -1.274708
     26          1           0       -1.735497   -0.478095    0.089951
     27          7           0        2.464929    4.782949    2.608182
     28          1           0        3.433808    4.506410    2.756535
     29          6           0        2.130391    4.644298    1.212388
     30          1           0        1.070777    4.906688    1.084561
     31          6           0        2.984261    5.603228    0.371965
     32          6           0        2.300367    3.223152    0.680314
     33          1           0        4.043624    5.343771    0.464296
     34          1           0        2.721819    5.583748   -0.689868
     35          1           0        2.842885    6.616364    0.750379
     36          8           0        2.847785    2.335270    1.302870
     37          8           0        1.842943    2.959994   -0.549477
     38          1           0        1.899094    4.156432    3.175486
     39          1           0        1.387346    3.730575   -0.925491
 ---------------------------------------------------------------------
                    Distance matrix (angstroms):
                    1          2          3          4          5
     1  C    0.000000
     2  C    2.832849   0.000000
     3  C    2.406407   1.361102   0.000000
     4  N    1.381827   2.363937   1.344407   0.000000
     5  H    3.913521   1.080674   2.139315   3.349327   0.000000
     6  H    3.347722   2.146381   1.084431   2.063101   2.512586
     7  O    1.202383   4.035227   3.508913   2.279954   5.115897
     8  N    1.420738   2.398363   2.717612   2.351348   3.377668
     9  C    2.438680   1.418407   2.375236   2.724787   2.177814
    10  N    3.638286   2.397418   3.604713   4.056093   2.669385
    11  H    3.978994   3.332712   4.437847   4.672469   3.679884
    12  H    4.463280   2.589827   3.933607   4.652685   2.429322
    13  H    2.044525   3.317164   2.093079   1.043945   4.222659
    14  S    5.713098   6.795936   7.452514   6.998830   7.456196
    15  C    7.095127   8.108445   8.801958   8.367875   8.710607
    16  H    7.884481   8.624617   9.436008   9.115309   9.126749
    17  H    7.582876   8.885707   9.468764   8.906799   9.559924
    18  H    6.878323   7.804560   8.492817   8.095364   8.387638
    19  C    6.899008   8.036801   8.671341   8.184860   8.678289
    20  H    7.404901   8.822471   9.351053   8.739998   9.531635
    21  H    7.711607   8.557951   9.316107   8.950468   9.095759
    22  H    6.535732   7.679932   8.265050   7.775845   8.331939
    23  C    2.465460   3.747627   4.185318   3.693133   4.617242
    24  H    3.180441   4.088667   4.675930   4.316198   4.844485
    25  H    3.182246   4.091735   4.679027   4.318543   4.848304
    26  H    2.462660   4.476616   4.629561   3.834803   5.441148
    27  N    5.703543   7.739801   6.500286   5.406940   8.635016
    28  H    5.914747   7.631323   6.329622   5.385924   8.445203
    29  C    5.056854   7.161966   5.962755   4.828238   8.082622
    30  H    5.098182   7.489783   6.402511   5.163492   8.473878
    31  C    6.159809   7.990345   6.758968   5.776173   8.828997
    32  C    3.725379   5.656065   4.457132   3.350749   6.566972
    33  H    6.406799   7.907322   6.614665   5.791483   8.656868
    34  H    6.125593   7.910268   6.758078   5.809583   8.738269
    35  H    7.080755   9.029290   7.798202   6.774412   9.885655
    36  O    3.418359   5.007070   3.726978   2.738135   5.864980
    37  O    3.385555   5.293809   4.253031   3.190063   6.210714
    38  H    5.297453   7.441282   6.268751   5.128686   8.366952
    39  H    4.088838   6.129476   5.162271   4.086612   7.053917
                    6          7          8          9         10
     6  H    0.000000
     7  O    4.342505   0.000000
     8  N    3.799952   2.299451   0.000000
     9  C    3.385426   3.531452   1.353708   0.000000
    10  N    4.529870   4.612093   2.312696   1.331592   0.000000
    11  H    5.423126   4.763901   2.559943   2.065162   1.011342
    12  H    4.701302   5.512233   3.230649   2.031140   1.010692
    13  H    2.371339   2.476437   3.281130   3.767974   5.098866
    14  S    8.536711   5.634742   4.754100   5.380860   4.923615
    15  C    9.875811   6.976657   6.150735   6.710697   6.151924
    16  H   10.505109   7.864513   6.826545   7.228063   6.496017
    17  H   10.542957   7.298348   6.787650   7.493769   7.055897
    18  H    9.542843   6.813051   5.943597   6.456527   5.923990
    19  C    9.741429   6.725592   6.022707   6.650538   6.173312
    20  H   10.420894   7.065436   6.675259   7.441712   7.074387
    21  H   10.380761   7.646893   6.713243   7.172719   6.515161
    22  H    9.308980   6.376080   5.720064   6.351903   5.961798
    23  C    5.267142   2.748248   1.467782   2.441571   2.728844
    24  H    5.743338   3.487476   2.108848   2.752313   2.720574
    25  H    5.746968   3.490295   2.109013   2.755486   2.725161
    26  H    5.673649   2.233422   2.078300   3.317607   3.792298
    27  N    6.480448   5.074755   7.116724   7.999475   9.286416
    28  H    6.147504   5.472981   7.323733   8.064512   9.379098
    29  C    6.023972   4.416614   6.456792   7.363921   8.637056
    30  H    6.628414   4.250676   6.438788   7.487447   8.696184
    31  C    6.666152   5.639921   7.522009   8.321639   9.596206
    32  C    4.556038   3.323268   5.120173   5.923680   7.215972
    33  H    6.348494   6.065296   7.765980   8.419829   9.722003
    34  H    6.720901   5.635485   7.405486   8.190927   9.417219
    35  H    7.713422   6.455393   8.452600   9.314344  10.582381
    36  O    3.711657   3.293965   4.799170   5.444850   6.770345
    37  O    4.499372   3.048766   4.638193   5.442659   6.666393
    38  H    6.351950   4.616078   6.674022   7.604311   8.858089
    39  H    5.441374   3.568719   5.272826   6.161470   7.323051
                   11         12         13         14         15
    11  H    0.000000
    12  H    1.726936   0.000000
    13  H    5.692400   5.688866   0.000000
    14  S    3.989050   5.708837   7.754156   0.000000
    15  C    5.199065   6.841513   9.109447   1.813173   0.000000
    16  H    5.505012   7.068966   9.914330   2.424180   1.092046
    17  H    6.126477   7.803330   9.565598   2.420871   1.091961
    18  H    5.034630   6.591109   8.837831   2.385977   1.091188
    19  C    5.247381   6.900958   8.892990   1.813291   2.759223
    20  H    6.166745   7.854456   9.365519   2.420887   2.935392
    21  H    5.549089   7.124584   9.719366   2.424510   2.942101
    22  H    5.118581   6.694857   8.460612   2.386240   3.732292
    23  C    2.384093   3.738522   4.503452   3.313758   4.755266
    24  H    2.200465   3.661167   5.153097   2.989605   4.649915
    25  H    2.210137   3.667891   5.155587   3.009619   4.136635
    26  H    3.464902   4.802857   4.444029   3.402851   4.806420
    27  N    9.671841  10.003081   4.436065  10.470639  11.726243
    28  H    9.858364  10.017791   4.365227  11.006933  12.317626
    29  C    9.003557   9.370836   3.901661   9.801918  10.922972
    30  H    8.943880   9.505890   4.365229   9.298742  10.336603
    31  C   10.018073  10.268069   4.839513  10.957777  11.953809
    32  C    7.652413   7.907675   2.431852   8.878382  10.055107
    33  H   10.241302  10.311382   4.809826  11.539237  12.598829
    34  H    9.814188  10.085252   4.977569  10.720810  11.584607
    35  H   10.963742  11.283492   5.829922  11.662701  12.628135
    36  O    7.302539   7.389807   1.705976   8.913391  10.237629
    37  O    7.059393   7.370120   2.557816   8.263160   9.279311
    38  H    9.196547   9.603238   4.237079   9.875364  11.211378
    39  H    7.629496   8.064670   3.508363   8.461090   9.340372
                   16         17         18         19         20
    16  H    0.000000
    17  H    1.788025   0.000000
    18  H    1.777886   1.776305   0.000000
    19  C    2.940997   2.936129   3.732200   0.000000
    20  H    3.235219   2.691447   3.947115   1.091969   0.000000
    21  H    2.703719   3.237518   3.955439   1.092032   1.788099
    22  H    3.954928   3.947426   4.616844   1.091252   1.776135
    23  C    5.468715   5.356759   4.653161   4.626947   5.246488
    24  H    5.219927   5.296428   4.765030   4.002153   4.752796
    25  H    4.839552   4.832725   3.843707   4.614021   5.237769
    26  H    5.659077   5.198564   4.755800   4.599262   5.013029
    27  N   12.701114  11.808625  11.564024  11.289372  11.386619
    28  H   13.262190  12.471605  12.137257  11.853231  12.025476
    29  C   11.920331  11.020829  10.653231  10.801549  10.904309
    30  H   11.365732  10.343295  10.089750  10.259478  10.268963
    31  C   12.962814  12.054769  11.578216  12.074716  12.172586
    32  C   11.002407  10.285676   9.747101   9.988504  10.222984
    33  H   13.576219  12.773892  12.208581  12.679965  12.852802
    34  H   12.598532  11.689646  11.125113  11.951812  12.045668
    35  H   13.660677  12.651066  12.282140  12.706391  12.728126
    36  O   11.121531  10.555515   9.987811   9.954659  10.288903
    37  O   10.233532   9.535581   8.858401   9.547835   9.791518
    38  H   12.164170  11.288649  11.132398  10.579255  10.677802
    39  H   10.337364   9.506092   8.886619   9.757497   9.907163
                   21         22         23         24         25
    21  H    0.000000
    22  H    1.777859   0.000000
    23  C    5.359386   4.431391   0.000000
    24  H    4.663894   3.650961   1.092756   0.000000
    25  H    5.245073   4.665270   1.092626   1.793343   0.000000
    26  H    5.487572   4.399264   1.086989   1.777545   1.776709
    27  N   12.306912  10.811249   7.815658   8.435096   8.535574
    28  H   12.840519  11.336374   8.177997   8.774935   8.914607
    29  C   11.811187  10.443147   7.137100   7.897820   7.718387
    30  H   11.296913   9.956170   6.901796   7.674928   7.445155
    31  C   13.071914  11.785418   8.269789   9.114165   8.728828
    32  C   10.942478   9.631154   5.969562   6.754445   6.539038
    33  H   13.649719  12.347582   8.670962   9.491199   9.151842
    34  H   12.930034  11.756270   8.107894   9.032784   8.436933
    35  H   13.731411  12.415494   9.114481   9.938471   9.588532
    36  O   10.866501   9.496608   5.828928   6.489890   6.511592
    37  O   10.472459   9.323014   5.420652   6.343293   5.795524
    38  H   11.595896  10.043122   7.299682   7.823329   8.101423
    39  H   10.708031   9.606610   5.867599   6.832416   6.152613
                   26         27         28         29         30
    26  H    0.000000
    27  N    7.187743   0.000000
    28  H    7.660135   1.018435   0.000000
    29  C    6.514896   1.442006   2.025413   0.000000
    30  H    6.153073   2.068911   2.922265   1.099077   0.000000
    31  C    7.703125   2.437874   2.662945   1.534585   2.157402
    32  C    5.507809   2.485301   2.691121   1.526974   2.123582
    33  H    8.211729   2.720854   2.515434   2.170107   3.068157
    34  H    7.564504   3.403587   3.680391   2.202483   2.516535
    35  H    8.469303   2.637365   2.970818   2.147125   2.484962
    36  O    5.512955   2.800277   2.677763   2.419597   3.133306
    37  O    5.003455   3.698762   3.981453   2.454318   2.656302
    38  H    6.649031   1.017117   1.628911   2.035992   2.370856
    39  H    5.338181   3.841292   4.283368   2.440806   2.350270
                   31         32         33         34         35
    31  C    0.000000
    32  C    2.495506   0.000000
    33  H    1.094574   2.753658   0.000000
    34  H    1.093958   2.761781   1.771116   0.000000
    35  H    1.090701   3.437022   1.772882   1.776306   0.000000
    36  O    3.400700   1.214733   3.344296   3.813067   4.316600
    37  O    3.022970   1.338236   3.398989   2.770599   4.007312
    38  H    3.336246   2.694052   3.655042   4.201794   3.580943
    39  H    2.782150   1.915645   3.404368   2.295776   3.640730
                   36         37         38         39
    36  O    0.000000
    37  O    2.197994   0.000000
    38  H    2.779089   3.912795   0.000000
    39  H    3.007549   0.970953   4.154666   0.000000
 Symmetry turned off by external request.
 Stoichiometry    C10H21N4O3S(1+)
 Framework group  C1[X(C10H21N4O3S)]
 Deg. of freedom   111
 Full point group                 C1      NOp   1
 Rotational constants (GHZ):      0.4825285      0.1213897      0.1032275
 Standard basis: 6-31G(d) (6D, 7F)
   316 basis functions,   612 primitive gaussians,   316 cartesian basis functions
    74 alpha electrons       74 beta electrons
       nuclear repulsion energy      1428.5885951032 Hartrees.
 NAtoms=   39 NActive=   39 NUniq=   39 SFac= 1.00D+00 NAtFMM=   60 NAOKFM=F Big=F
 Integral buffers will be    131072 words long.
 Raffenetti 2 integral format.
 Two-electron integral symmetry is turned off.
 One-electron integrals computed using PRISM.
 NBasis=   316 RedAO= T EigKep=  1.06D-03  NBF=   316
 NBsUse=   316 1.00D-06 EigRej= -1.00D+00 NBFU=   316
 ExpMin= 1.17D-01 ExpMax= 2.19D+04 ExpMxC= 3.30D+03 IAcc=1 IRadAn=         1 AccDes= 0.00D+00
 Harris functional with IExCor=  402 and IRadAn=       1 diagonalized for initial guess.
 HarFok:  IExCor=  402 AccDes= 0.00D+00 IRadAn=         1 IDoV= 1 UseB2=F ITyADJ=14
 ICtDFT=  3500011 ScaDFX=  1.000000  1.000000  1.000000  1.000000
 FoFCou: FMM=F IPFlag=           0 FMFlag=      100000 FMFlg1=           0
         NFxFlg=           0 DoJE=T BraDBF=F KetDBF=T FulRan=T
         wScrn=  0.000000 ICntrl=     500 IOpCl=  0 I1Cent=   200000004 NGrid=           0
         NMat0=    1 NMatS0=      1 NMatT0=    0 NMatD0=    1 NMtDS0=    0 NMtDT0=    0
 Symmetry not used in FoFCou.
 Keep R1 ints in memory in canonical form, NReq=1270581237.
 Requested convergence on RMS density matrix=1.00D-08 within 128 cycles.
 Requested convergence on MAX density matrix=1.00D-06.
 Requested convergence on             energy=1.00D-06.
 No special actions if energy rises.
 Integral accuracy reduced to 1.0D-05 until final iterations.
 Initial convergence to 1.0D-05 achieved.  Increase integral accuracy.
 SCF Done:  E(RB3LYP) =  -1236.40813001     A.U. after   15 cycles
            NFock= 15  Conv=0.55D-08     -V/T= 2.0072

 **********************************************************************

            Population analysis using the SCF density.

 **********************************************************************

 Alpha  occ. eigenvalues --  -88.95898 -19.31421 -19.26613 -19.26091 -14.55581
 Alpha  occ. eigenvalues --  -14.53803 -14.52869 -14.40611 -10.47282 -10.46413
 Alpha  occ. eigenvalues --  -10.43168 -10.40799 -10.35652 -10.35011 -10.33229
 Alpha  occ. eigenvalues --  -10.29089 -10.29084 -10.28023  -8.02045  -5.98563
 Alpha  occ. eigenvalues --   -5.98205  -5.97503  -1.22591  -1.21847  -1.15883
 Alpha  occ. eigenvalues --   -1.14024  -1.10953  -1.07192  -0.98951  -0.94656
 Alpha  occ. eigenvalues --   -0.88412  -0.88094  -0.84681  -0.83288  -0.80455
 Alpha  occ. eigenvalues --   -0.78808  -0.75853  -0.74314  -0.72443  -0.70983
 Alpha  occ. eigenvalues --   -0.70131  -0.68308  -0.66093  -0.63961  -0.63570
 Alpha  occ. eigenvalues --   -0.62716  -0.59991  -0.59528  -0.58075  -0.57363
 Alpha  occ. eigenvalues --   -0.56786  -0.55396  -0.55056  -0.54265  -0.53567
 Alpha  occ. eigenvalues --   -0.52810  -0.52564  -0.52244  -0.51281  -0.50758
 Alpha  occ. eigenvalues --   -0.49352  -0.49045  -0.48213  -0.47685  -0.45665
 Alpha  occ. eigenvalues --   -0.44982  -0.43725  -0.43121  -0.42109  -0.40336
 Alpha  occ. eigenvalues --   -0.39837  -0.38564  -0.33466  -0.30936
 Alpha virt. eigenvalues --   -0.19271  -0.13345  -0.10508  -0.07210  -0.05568
 Alpha virt. eigenvalues --   -0.05353  -0.05048  -0.02546  -0.02196  -0.00535
 Alpha virt. eigenvalues --    0.00259   0.00913   0.01720   0.02020   0.03597
 Alpha virt. eigenvalues --    0.03740   0.04347   0.05124   0.06148   0.06276
 Alpha virt. eigenvalues --    0.06698   0.07229   0.07532   0.08074   0.08389
 Alpha virt. eigenvalues --    0.08952   0.09178   0.09257   0.10945   0.11540
 Alpha virt. eigenvalues --    0.12589   0.14546   0.15041   0.15902   0.16374
 Alpha virt. eigenvalues --    0.18748   0.20802   0.24594   0.24896   0.29587
 Alpha virt. eigenvalues --    0.30741   0.31182   0.31456   0.32879   0.33235
 Alpha virt. eigenvalues --    0.33597   0.36179   0.36621   0.39325   0.39974
 Alpha virt. eigenvalues --    0.40387   0.40854   0.42841   0.43129   0.43482
 Alpha virt. eigenvalues --    0.43751   0.44733   0.45044   0.46245   0.47425
 Alpha virt. eigenvalues --    0.48623   0.49088   0.49958   0.51035   0.51223
 Alpha virt. eigenvalues --    0.51908   0.52221   0.53167   0.53964   0.55665
 Alpha virt. eigenvalues --    0.57926   0.61666   0.62651   0.63788   0.64145
 Alpha virt. eigenvalues --    0.65250   0.67107   0.67569   0.67579   0.68480
 Alpha virt. eigenvalues --    0.69880   0.70191   0.70978   0.72052   0.72265
 Alpha virt. eigenvalues --    0.72502   0.74241   0.74759   0.75035   0.76212
 Alpha virt. eigenvalues --    0.77643   0.77762   0.78647   0.79156   0.79533
 Alpha virt. eigenvalues --    0.79854   0.80146   0.80450   0.81503   0.82239
 Alpha virt. eigenvalues --    0.82467   0.83155   0.83283   0.83752   0.84057
 Alpha virt. eigenvalues --    0.85132   0.85808   0.86105   0.88221   0.88555
 Alpha virt. eigenvalues --    0.90270   0.90542   0.91186   0.93024   0.94334
 Alpha virt. eigenvalues --    0.94821   0.95773   0.97900   0.98751   1.02312
 Alpha virt. eigenvalues --    1.04268   1.04949   1.07755   1.10103   1.14058
 Alpha virt. eigenvalues --    1.14390   1.15321   1.18176   1.20183   1.21741
 Alpha virt. eigenvalues --    1.22439   1.24110   1.25832   1.26315   1.27521
 Alpha virt. eigenvalues --    1.28631   1.29375   1.30921   1.32112   1.34838
 Alpha virt. eigenvalues --    1.38997   1.42883   1.44287   1.47351   1.50010
 Alpha virt. eigenvalues --    1.52301   1.55394   1.55791   1.58460   1.59636
 Alpha virt. eigenvalues --    1.60213   1.60531   1.61836   1.63899   1.64084
 Alpha virt. eigenvalues --    1.65334   1.67301   1.68735   1.69446   1.70680
 Alpha virt. eigenvalues --    1.71570   1.73224   1.74331   1.75139   1.75631
 Alpha virt. eigenvalues --    1.76931   1.79936   1.81782   1.83335   1.85986
 Alpha virt. eigenvalues --    1.87715   1.91310   1.92538   1.92778   1.94120
 Alpha virt. eigenvalues --    1.98860   2.00198   2.01258   2.01897   2.03014
 Alpha virt. eigenvalues --    2.03721   2.05407   2.05689   2.09767   2.09916
 Alpha virt. eigenvalues --    2.12836   2.12892   2.13876   2.14600   2.16349
 Alpha virt. eigenvalues --    2.16765   2.16849   2.18610   2.19380   2.20069
 Alpha virt. eigenvalues --    2.24113   2.24415   2.26211   2.27982   2.30191
 Alpha virt. eigenvalues --    2.31612   2.32059   2.38850   2.43318   2.44147
 Alpha virt. eigenvalues --    2.49540   2.50860   2.51355   2.51883   2.54078
 Alpha virt. eigenvalues --    2.54584   2.56721   2.58264   2.64004   2.67623
 Alpha virt. eigenvalues --    2.71072   2.75053   2.76762   2.85942   2.87999
 Alpha virt. eigenvalues --    2.90916   2.99021   3.10375   3.29819   3.68172
 Alpha virt. eigenvalues --    3.69883   3.82769   3.84422   3.89671   3.91871
 Alpha virt. eigenvalues --    3.97740   4.02376   4.08616   4.11263   4.12166
 Alpha virt. eigenvalues --    4.12834   4.18117   4.19619   4.23054   4.40728
 Alpha virt. eigenvalues --    4.48069   4.52920
          Condensed to atoms (all electrons):
               1          2          3          4          5          6
     1  C    4.142530  -0.017150  -0.030772   0.292893   0.000447   0.002439
     2  C   -0.017150   5.003062   0.560668  -0.022830   0.367086  -0.032289
     3  C   -0.030772   0.560668   4.668662   0.348109  -0.026921   0.369833
     4  N    0.292893  -0.022830   0.348109   7.131104   0.003246  -0.040606
     5  H    0.000447   0.367086  -0.026921   0.003246   0.492803  -0.003012
     6  H    0.002439  -0.032289   0.369833  -0.040606  -0.003012   0.473921
     7  O    0.613025   0.000795   0.001867  -0.078100   0.000003  -0.000086
     8  N    0.245174  -0.044395  -0.014490  -0.102852   0.003466  -0.000170
     9  C   -0.021990   0.487065  -0.015186  -0.022910  -0.031441   0.003144
    10  N    0.000739  -0.070604   0.004370   0.000132  -0.005905  -0.000118
    11  H    0.000066   0.003954  -0.000135  -0.000004  -0.000041   0.000002
    12  H    0.000019  -0.003713   0.000123   0.000017   0.003535  -0.000003
    13  H   -0.010975   0.001820  -0.014284   0.190927  -0.000064  -0.002084
    14  S    0.000008  -0.000000   0.000000   0.000000  -0.000000  -0.000000
    15  C   -0.000000   0.000000  -0.000000  -0.000000   0.000000  -0.000000
    16  H    0.000000   0.000000   0.000000  -0.000000  -0.000000   0.000000
    17  H    0.000000  -0.000000  -0.000000   0.000000  -0.000000  -0.000000
    18  H   -0.000000   0.000000  -0.000000  -0.000000   0.000000  -0.000000
    19  C   -0.000000   0.000000  -0.000000  -0.000000   0.000000   0.000000
    20  H    0.000000  -0.000000  -0.000000   0.000000  -0.000000  -0.000000
    21  H    0.000000   0.000000   0.000000   0.000000  -0.000000   0.000000
    22  H   -0.000000   0.000000  -0.000000  -0.000000   0.000000  -0.000000
    23  C   -0.026210   0.004717  -0.000078   0.003161  -0.000100   0.000011
    24  H    0.000993  -0.000063   0.000007  -0.000081  -0.000000  -0.000000
    25  H    0.001175  -0.000080   0.000010  -0.000084  -0.000000  -0.000000
    26  H   -0.000665  -0.000191  -0.000046   0.000881   0.000001   0.000001
    27  N   -0.000003   0.000000   0.000000   0.000003  -0.000000  -0.000000
    28  H   -0.000000   0.000000  -0.000000   0.000003  -0.000000  -0.000000
    29  C   -0.000033  -0.000000   0.000001  -0.000192   0.000000   0.000001
    30  H   -0.000008   0.000000  -0.000000   0.000011  -0.000000  -0.000000
    31  C    0.000002  -0.000000  -0.000000   0.000001  -0.000000  -0.000000
    32  C    0.001443  -0.000005   0.000109   0.002633   0.000000  -0.000006
    33  H   -0.000000   0.000000   0.000000   0.000001  -0.000000  -0.000000
    34  H    0.000000  -0.000000  -0.000000   0.000000  -0.000000  -0.000000
    35  H    0.000000   0.000000  -0.000000  -0.000000   0.000000   0.000000
    36  O   -0.000531  -0.000013   0.000536  -0.045614   0.000000   0.000276
    37  O    0.001186  -0.000004  -0.000017   0.001084  -0.000000   0.000003
    38  H    0.000003  -0.000000  -0.000000   0.000002  -0.000000  -0.000000
    39  H   -0.000058   0.000000   0.000002  -0.000015   0.000000   0.000000
               7          8          9         10         11         12
     1  C    0.613025   0.245174  -0.021990   0.000739   0.000066   0.000019
     2  C    0.000795  -0.044395   0.487065  -0.070604   0.003954  -0.003713
     3  C    0.001867  -0.014490  -0.015186   0.004370  -0.000135   0.000123
     4  N   -0.078100  -0.102852  -0.022910   0.000132  -0.000004   0.000017
     5  H    0.000003   0.003466  -0.031441  -0.005905  -0.000041   0.003535
     6  H   -0.000086  -0.000170   0.003144  -0.000118   0.000002  -0.000003
     7  O    7.996526  -0.085098   0.000259  -0.000067   0.000001   0.000001
     8  N   -0.085098   7.157519   0.359116  -0.073642  -0.008758   0.003522
     9  C    0.000259   0.359116   4.273289   0.362966  -0.014120  -0.019957
    10  N   -0.000067  -0.073642   0.362966   6.947339   0.303961   0.319747
    11  H    0.000001  -0.008758  -0.014120   0.303961   0.318953  -0.018075
    12  H    0.000001   0.003522  -0.019957   0.319747  -0.018075   0.323333
    13  H   -0.000132   0.001891   0.000383   0.000008  -0.000000  -0.000000
    14  S    0.000005   0.000904  -0.000034  -0.000259   0.002061  -0.000002
    15  C    0.000000  -0.000001   0.000000   0.000000  -0.000008   0.000000
    16  H    0.000000   0.000000  -0.000000   0.000000  -0.000001   0.000000
    17  H   -0.000000   0.000000   0.000000  -0.000000   0.000000  -0.000000
    18  H    0.000000  -0.000000   0.000000   0.000000  -0.000001   0.000000
    19  C    0.000000  -0.000002   0.000000   0.000000  -0.000007   0.000000
    20  H   -0.000000   0.000000   0.000000  -0.000000   0.000000  -0.000000
    21  H    0.000000   0.000000  -0.000000   0.000000  -0.000001   0.000000
    22  H    0.000000  -0.000001  -0.000000   0.000000  -0.000001   0.000000
    23  C   -0.010161   0.217485  -0.034922  -0.012013   0.011209   0.000221
    24  H    0.000343  -0.038941  -0.003323   0.001922   0.001986   0.000083
    25  H    0.000353  -0.038867  -0.003486   0.002057   0.001674   0.000081
    26  H    0.020353  -0.029538   0.003005   0.000441  -0.000216  -0.000002
    27  N    0.000001  -0.000000  -0.000000  -0.000000  -0.000000  -0.000000
    28  H    0.000000   0.000000  -0.000000   0.000000  -0.000000  -0.000000
    29  C   -0.000139  -0.000000  -0.000000  -0.000000  -0.000000   0.000000
    30  H    0.000054   0.000000  -0.000000   0.000000  -0.000000  -0.000000
    31  C    0.000000   0.000000   0.000000   0.000000  -0.000000  -0.000000
    32  C    0.005615   0.000033  -0.000000   0.000000  -0.000000  -0.000000
    33  H    0.000000  -0.000000  -0.000000   0.000000  -0.000000  -0.000000
    34  H   -0.000000   0.000000  -0.000000  -0.000000  -0.000000  -0.000000
    35  H    0.000000  -0.000000  -0.000000   0.000000  -0.000000  -0.000000
    36  O   -0.000956  -0.000009  -0.000001  -0.000000   0.000000   0.000000
    37  O   -0.001244  -0.000034   0.000002   0.000000   0.000000   0.000000
    38  H    0.000002   0.000000   0.000000   0.000000  -0.000000  -0.000000
    39  H    0.000204   0.000000  -0.000000   0.000000  -0.000000  -0.000000
              13         14         15         16         17         18
     1  C   -0.010975   0.000008  -0.000000   0.000000   0.000000  -0.000000
     2  C    0.001820  -0.000000   0.000000   0.000000  -0.000000   0.000000
     3  C   -0.014284   0.000000  -0.000000   0.000000  -0.000000  -0.000000
     4  N    0.190927   0.000000  -0.000000  -0.000000   0.000000  -0.000000
     5  H   -0.000064  -0.000000   0.000000  -0.000000  -0.000000   0.000000
     6  H   -0.002084  -0.000000  -0.000000   0.000000  -0.000000  -0.000000
     7  O   -0.000132   0.000005   0.000000   0.000000  -0.000000   0.000000
     8  N    0.001891   0.000904  -0.000001   0.000000   0.000000  -0.000000
     9  C    0.000383  -0.000034   0.000000  -0.000000   0.000000   0.000000
    10  N    0.000008  -0.000259   0.000000   0.000000  -0.000000   0.000000
    11  H   -0.000000   0.002061  -0.000008  -0.000001   0.000000  -0.000001
    12  H   -0.000000  -0.000002   0.000000   0.000000  -0.000000   0.000000
    13  H    0.299931  -0.000000   0.000000  -0.000000   0.000000  -0.000000
    14  S   -0.000000  15.702076   0.254330  -0.045416  -0.045589  -0.032946
    15  C    0.000000   0.254330   5.244026   0.370939   0.372548   0.371547
    16  H   -0.000000  -0.045416   0.370939   0.539705  -0.034146  -0.024037
    17  H    0.000000  -0.045589   0.372548  -0.034146   0.533797  -0.023359
    18  H   -0.000000  -0.032946   0.371547  -0.024037  -0.023359   0.521751
    19  C   -0.000000   0.255286  -0.028321  -0.003612  -0.003501   0.002797
    20  H    0.000000  -0.045967  -0.003529  -0.001221   0.006142   0.000001
    21  H   -0.000000  -0.045577  -0.003600   0.006090  -0.001216  -0.000008
    22  H   -0.000000  -0.032820   0.002802  -0.000008   0.000001  -0.000073
    23  C   -0.000028  -0.002313  -0.000096   0.000005   0.000000  -0.000009
    24  H    0.000001   0.001944  -0.000000  -0.000001   0.000002  -0.000001
    25  H    0.000001   0.001773  -0.000040  -0.000001   0.000001   0.000041
    26  H   -0.000001   0.001116  -0.000010   0.000000  -0.000001  -0.000001
    27  N   -0.000078  -0.000000   0.000000   0.000000  -0.000000   0.000000
    28  H   -0.000042  -0.000000   0.000000  -0.000000  -0.000000   0.000000
    29  C    0.001999   0.000000  -0.000000   0.000000  -0.000000  -0.000000
    30  H   -0.000107  -0.000000   0.000000  -0.000000  -0.000000   0.000000
    31  C   -0.000041   0.000000   0.000000  -0.000000   0.000000   0.000000
    32  C   -0.005673   0.000000  -0.000000   0.000000   0.000000  -0.000000
    33  H   -0.000013  -0.000000   0.000000   0.000000  -0.000000   0.000000
    34  H    0.000000   0.000000   0.000000  -0.000000  -0.000000   0.000000
    35  H    0.000001  -0.000000  -0.000000   0.000000   0.000000  -0.000000
    36  O    0.102124   0.000000  -0.000000   0.000000   0.000000  -0.000000
    37  O   -0.003018  -0.000000   0.000000   0.000000  -0.000000  -0.000000
    38  H   -0.000034   0.000000   0.000000  -0.000000  -0.000000   0.000000
    39  H    0.000088  -0.000000  -0.000000  -0.000000   0.000000   0.000000
              19         20         21         22         23         24
     1  C   -0.000000   0.000000   0.000000  -0.000000  -0.026210   0.000993
     2  C    0.000000  -0.000000   0.000000   0.000000   0.004717  -0.000063
     3  C   -0.000000  -0.000000   0.000000  -0.000000  -0.000078   0.000007
     4  N   -0.000000   0.000000   0.000000  -0.000000   0.003161  -0.000081
     5  H    0.000000  -0.000000  -0.000000   0.000000  -0.000100  -0.000000
     6  H    0.000000  -0.000000   0.000000  -0.000000   0.000011  -0.000000
     7  O    0.000000  -0.000000   0.000000   0.000000  -0.010161   0.000343
     8  N   -0.000002   0.000000   0.000000  -0.000001   0.217485  -0.038941
     9  C    0.000000   0.000000  -0.000000  -0.000000  -0.034922  -0.003323
    10  N    0.000000  -0.000000   0.000000   0.000000  -0.012013   0.001922
    11  H   -0.000007   0.000000  -0.000001  -0.000001   0.011209   0.001986
    12  H    0.000000  -0.000000   0.000000   0.000000   0.000221   0.000083
    13  H   -0.000000   0.000000  -0.000000  -0.000000  -0.000028   0.000001
    14  S    0.255286  -0.045967  -0.045577  -0.032820  -0.002313   0.001944
    15  C   -0.028321  -0.003529  -0.003600   0.002802  -0.000096  -0.000000
    16  H   -0.003612  -0.001221   0.006090  -0.000008   0.000005  -0.000001
    17  H   -0.003501   0.006142  -0.001216   0.000001   0.000000   0.000002
    18  H    0.002797   0.000001  -0.000008  -0.000073  -0.000009  -0.000001
    19  C    5.242176   0.372747   0.370922   0.371334  -0.000149  -0.000018
    20  H    0.372747   0.533721  -0.034094  -0.023327  -0.000000   0.000004
    21  H    0.370922  -0.034094   0.539799  -0.024071   0.000008  -0.000007
    22  H    0.371334  -0.023327  -0.024071   0.521775  -0.000015   0.000099
    23  C   -0.000149  -0.000000   0.000008  -0.000015   5.104848   0.378644
    24  H   -0.000018   0.000004  -0.000007   0.000099   0.378644   0.502002
    25  H   -0.000004   0.000001   0.000000  -0.000002   0.378755  -0.036561
    26  H   -0.000016  -0.000001   0.000001  -0.000001   0.367880  -0.016957
    27  N    0.000000  -0.000000  -0.000000   0.000000  -0.000000   0.000000
    28  H    0.000000  -0.000000  -0.000000   0.000000  -0.000000   0.000000
    29  C   -0.000000  -0.000000   0.000000  -0.000000   0.000000  -0.000000
    30  H    0.000000  -0.000000  -0.000000   0.000000  -0.000000   0.000000
    31  C    0.000000   0.000000  -0.000000   0.000000  -0.000000  -0.000000
    32  C   -0.000000  -0.000000   0.000000  -0.000000   0.000001  -0.000000
    33  H    0.000000  -0.000000   0.000000   0.000000  -0.000000   0.000000
    34  H   -0.000000  -0.000000  -0.000000   0.000000  -0.000000  -0.000000
    35  H   -0.000000   0.000000   0.000000  -0.000000   0.000000  -0.000000
    36  O   -0.000000   0.000000   0.000000  -0.000000   0.000000  -0.000000
    37  O   -0.000000  -0.000000   0.000000  -0.000000   0.000000   0.000000
    38  H   -0.000000  -0.000000  -0.000000   0.000000  -0.000000   0.000000
    39  H    0.000000   0.000000  -0.000000  -0.000000   0.000000  -0.000000
              25         26         27         28         29         30
     1  C    0.001175  -0.000665  -0.000003  -0.000000  -0.000033  -0.000008
     2  C   -0.000080  -0.000191   0.000000   0.000000  -0.000000   0.000000
     3  C    0.000010  -0.000046   0.000000  -0.000000   0.000001  -0.000000
     4  N   -0.000084   0.000881   0.000003   0.000003  -0.000192   0.000011
     5  H   -0.000000   0.000001  -0.000000  -0.000000   0.000000  -0.000000
     6  H   -0.000000   0.000001  -0.000000  -0.000000   0.000001  -0.000000
     7  O    0.000353   0.020353   0.000001   0.000000  -0.000139   0.000054
     8  N   -0.038867  -0.029538  -0.000000   0.000000  -0.000000   0.000000
     9  C   -0.003486   0.003005  -0.000000  -0.000000  -0.000000  -0.000000
    10  N    0.002057   0.000441  -0.000000   0.000000  -0.000000   0.000000
    11  H    0.001674  -0.000216  -0.000000  -0.000000  -0.000000  -0.000000
    12  H    0.000081  -0.000002  -0.000000  -0.000000   0.000000  -0.000000
    13  H    0.000001  -0.000001  -0.000078  -0.000042   0.001999  -0.000107
    14  S    0.001773   0.001116  -0.000000  -0.000000   0.000000  -0.000000
    15  C   -0.000040  -0.000010   0.000000   0.000000  -0.000000   0.000000
    16  H   -0.000001   0.000000   0.000000  -0.000000   0.000000  -0.000000
    17  H    0.000001  -0.000001  -0.000000  -0.000000  -0.000000  -0.000000
    18  H    0.000041  -0.000001   0.000000   0.000000  -0.000000   0.000000
    19  C   -0.000004  -0.000016   0.000000   0.000000  -0.000000   0.000000
    20  H    0.000001  -0.000001  -0.000000  -0.000000  -0.000000  -0.000000
    21  H    0.000000   0.000001  -0.000000  -0.000000   0.000000  -0.000000
    22  H   -0.000002  -0.000001   0.000000   0.000000  -0.000000   0.000000
    23  C    0.378755   0.367880  -0.000000  -0.000000   0.000000  -0.000000
    24  H   -0.036561  -0.016957   0.000000   0.000000  -0.000000   0.000000
    25  H    0.502286  -0.016851  -0.000000   0.000000  -0.000000   0.000000
    26  H   -0.016851   0.412243  -0.000000  -0.000000   0.000000  -0.000000
    27  N   -0.000000  -0.000000   6.832247   0.318191   0.349455  -0.037773
    28  H    0.000000  -0.000000   0.318191   0.433990  -0.044891   0.006909
    29  C   -0.000000   0.000000   0.349455  -0.044891   5.053035   0.373011
    30  H    0.000000  -0.000000  -0.037773   0.006909   0.373011   0.578128
    31  C    0.000000   0.000000  -0.056707  -0.005183   0.345969  -0.035419
    32  C   -0.000000  -0.000001  -0.049726  -0.004771   0.303849  -0.057618
    33  H    0.000000  -0.000000  -0.003648   0.005275  -0.033069   0.005284
    34  H   -0.000000  -0.000000   0.004265  -0.000118  -0.034165  -0.002995
    35  H   -0.000000  -0.000000   0.001779  -0.000741  -0.025703  -0.005827
    36  O   -0.000000   0.000000  -0.008300   0.006247  -0.072528   0.001111
    37  O    0.000000   0.000000   0.003521   0.000151  -0.071798   0.002609
    38  H    0.000000  -0.000000   0.320560  -0.029844  -0.045101  -0.003793
    39  H    0.000000  -0.000000   0.000267   0.000004   0.005659   0.002371
              31         32         33         34         35         36
     1  C    0.000002   0.001443  -0.000000   0.000000   0.000000  -0.000531
     2  C   -0.000000  -0.000005   0.000000  -0.000000   0.000000  -0.000013
     3  C   -0.000000   0.000109   0.000000  -0.000000  -0.000000   0.000536
     4  N    0.000001   0.002633   0.000001   0.000000  -0.000000  -0.045614
     5  H   -0.000000   0.000000  -0.000000  -0.000000   0.000000   0.000000
     6  H   -0.000000  -0.000006  -0.000000  -0.000000   0.000000   0.000276
     7  O    0.000000   0.005615   0.000000  -0.000000   0.000000  -0.000956
     8  N    0.000000   0.000033  -0.000000   0.000000  -0.000000  -0.000009
     9  C    0.000000  -0.000000  -0.000000  -0.000000  -0.000000  -0.000001
    10  N    0.000000   0.000000   0.000000  -0.000000   0.000000  -0.000000
    11  H   -0.000000  -0.000000  -0.000000  -0.000000  -0.000000   0.000000
    12  H   -0.000000  -0.000000  -0.000000  -0.000000  -0.000000   0.000000
    13  H   -0.000041  -0.005673  -0.000013   0.000000   0.000001   0.102124
    14  S    0.000000   0.000000  -0.000000   0.000000  -0.000000   0.000000
    15  C    0.000000  -0.000000   0.000000   0.000000  -0.000000  -0.000000
    16  H   -0.000000   0.000000   0.000000  -0.000000   0.000000   0.000000
    17  H    0.000000   0.000000  -0.000000  -0.000000   0.000000   0.000000
    18  H    0.000000  -0.000000   0.000000   0.000000  -0.000000  -0.000000
    19  C    0.000000  -0.000000   0.000000  -0.000000  -0.000000  -0.000000
    20  H    0.000000  -0.000000  -0.000000  -0.000000   0.000000   0.000000
    21  H   -0.000000   0.000000   0.000000  -0.000000   0.000000   0.000000
    22  H    0.000000  -0.000000   0.000000   0.000000  -0.000000  -0.000000
    23  C   -0.000000   0.000001  -0.000000  -0.000000   0.000000   0.000000
    24  H   -0.000000  -0.000000   0.000000  -0.000000  -0.000000  -0.000000
    25  H    0.000000  -0.000000   0.000000  -0.000000  -0.000000  -0.000000
    26  H    0.000000  -0.000001  -0.000000  -0.000000  -0.000000   0.000000
    27  N   -0.056707  -0.049726  -0.003648   0.004265   0.001779  -0.008300
    28  H   -0.005183  -0.004771   0.005275  -0.000118  -0.000741   0.006247
    29  C    0.345969   0.303849  -0.033069  -0.034165  -0.025703  -0.072528
    30  H   -0.035419  -0.057618   0.005284  -0.002995  -0.005827   0.001111
    31  C    5.129261  -0.049944   0.375903   0.362583   0.375600  -0.001654
    32  C   -0.049944   4.488156  -0.006420  -0.000253   0.004976   0.514202
    33  H    0.375903  -0.006420   0.539073  -0.028907  -0.025314   0.000906
    34  H    0.362583  -0.000253  -0.028907   0.571425  -0.022558   0.000034
    35  H    0.375600   0.004976  -0.025314  -0.022558   0.492096  -0.000045
    36  O   -0.001654   0.514202   0.000906   0.000034  -0.000045   8.075666
    37  O    0.002214   0.247133  -0.000064   0.002417  -0.000015  -0.081498
    38  H    0.006591   0.001398  -0.000094  -0.000215  -0.000083   0.002908
    39  H    0.001474  -0.026362  -0.000061   0.004324  -0.000198   0.004536
              37         38         39
     1  C    0.001186   0.000003  -0.000058
     2  C   -0.000004  -0.000000   0.000000
     3  C   -0.000017  -0.000000   0.000002
     4  N    0.001084   0.000002  -0.000015
     5  H   -0.000000  -0.000000   0.000000
     6  H    0.000003  -0.000000   0.000000
     7  O   -0.001244   0.000002   0.000204
     8  N   -0.000034   0.000000   0.000000
     9  C    0.000002   0.000000  -0.000000
    10  N    0.000000   0.000000   0.000000
    11  H    0.000000  -0.000000  -0.000000
    12  H    0.000000  -0.000000  -0.000000
    13  H   -0.003018  -0.000034   0.000088
    14  S   -0.000000   0.000000  -0.000000
    15  C    0.000000   0.000000  -0.000000
    16  H    0.000000  -0.000000  -0.000000
    17  H   -0.000000  -0.000000   0.000000
    18  H   -0.000000   0.000000   0.000000
    19  C   -0.000000  -0.000000   0.000000
    20  H   -0.000000  -0.000000   0.000000
    21  H    0.000000  -0.000000  -0.000000
    22  H   -0.000000   0.000000  -0.000000
    23  C    0.000000  -0.000000   0.000000
    24  H    0.000000   0.000000  -0.000000
    25  H    0.000000   0.000000   0.000000
    26  H    0.000000  -0.000000  -0.000000
    27  N    0.003521   0.320560   0.000267
    28  H    0.000151  -0.029844   0.000004
    29  C   -0.071798  -0.045101   0.005659
    30  H    0.002609  -0.003793   0.002371
    31  C    0.002214   0.006591   0.001474
    32  C    0.247133   0.001398  -0.026362
    33  H   -0.000064  -0.000094  -0.000061
    34  H    0.002417  -0.000215   0.004324
    35  H   -0.000015  -0.000083  -0.000198
    36  O   -0.081498   0.002908   0.004536
    37  O    8.223181   0.000176   0.236414
    38  H    0.000176   0.430549  -0.000016
    39  H    0.236414  -0.000016   0.335539
 Mulliken charges:
               1
     1  C    0.806254
     2  C   -0.237829
     3  C    0.147634
     4  N   -0.660920
     5  H    0.196896
     6  H    0.228745
     7  O   -0.463425
     8  N   -0.552312
     9  C    0.678140
    10  N   -0.781073
    11  H    0.397500
    12  H    0.391069
    13  H    0.437399
    14  S    0.031420
    15  C   -0.580587
    16  H    0.191702
    17  H    0.195320
    18  H    0.184297
    19  C   -0.579633
    20  H    0.195523
    21  H    0.191754
    22  H    0.184307
    23  C   -0.380848
    24  H    0.207924
    25  H    0.207768
    26  H    0.258575
    27  N   -0.674054
    28  H    0.314819
    29  C   -0.105360
    30  H    0.174053
    31  C   -0.450648
    32  C    0.631230
    33  H    0.171149
    34  H    0.144163
    35  H    0.206033
    36  O   -0.497396
    37  O   -0.562401
    38  H    0.316990
    39  H    0.435826
 Sum of Mulliken charges =   1.00000
 Mulliken charges with hydrogens summed into heavy atoms:
               1
     1  C    0.806254
     2  C   -0.040933
     3  C    0.376379
     4  N   -0.223521
     7  O   -0.463425
     8  N   -0.552312
     9  C    0.678140
    10  N    0.007495
    14  S    0.031420
    15  C   -0.009269
    19  C   -0.008050
    23  C    0.293418
    27  N   -0.042245
    29  C    0.068693
    31  C    0.070697
    32  C    0.631230
    36  O   -0.497396
    37  O   -0.126576
 Electronic spatial extent (au):  <R**2>=          10301.1982
 Charge=              1.0000 electrons
 Dipole moment (field-independent basis, Debye):
    X=              2.2097    Y=             -5.7475    Z=             -3.1981  Tot=              6.9386
 Quadrupole moment (field-independent basis, Debye-Ang):
   XX=            -63.3878   YY=            -54.1086   ZZ=           -107.3903
   XY=             14.3016   XZ=              1.9955   YZ=              4.0784
 Traceless Quadrupole moment (field-independent basis, Debye-Ang):
   XX=             11.5745   YY=             20.8536   ZZ=            -32.4281
   XY=             14.3016   XZ=              1.9955   YZ=              4.0784
 Octapole moment (field-independent basis, Debye-Ang**2):
  XXX=            -82.5235  YYY=            -60.3968  ZZZ=            -28.9395  XYY=             51.4903
  XXY=            -82.9722  XXZ=            -24.9716  XZZ=            -11.6544  YZZ=            -28.7307
  YYZ=            -78.1359  XYZ=             -0.0093
 Hexadecapole moment (field-independent basis, Debye-Ang**3):
 XXXX=          -5023.0196 YYYY=          -5119.8244 ZZZZ=           -813.7186 XXXY=          -1401.1850
 XXXZ=           -357.3283 YYYX=          -1733.6692 YYYZ=           -760.1789 ZZZX=           -464.0317
 ZZZY=           -672.3451 XXYY=          -1643.6830 XXZZ=          -1123.6033 YYZZ=          -1170.5564
 XXYZ=           -147.6900 YYXZ=           -242.2047 ZZXY=           -614.2371
 N-N= 1.428588595103D+03 E-N=-5.737909798541D+03  KE= 1.227516271721D+03
 Calling FoFJK, ICntrl=      2127 FMM=F ISym2X=0 I1Cent= 0 IOpClX= 0 NMat=1 NMatS=1 NMatT=0.
 -------------------------------------------------------------------
 Center     Atomic                   Forces (Hartrees/Bohr)
 Number     Number              X              Y              Z
 -------------------------------------------------------------------
      1        6           0.003657370   -0.006113774   -0.001772331
      2        6          -0.001938818   -0.002317216   -0.000914732
      3        6           0.004771531    0.001309878    0.000678335
      4        7           0.001771264    0.001424869    0.001104015
      5        1           0.000489120   -0.000411411   -0.000141994
      6        1           0.000411794   -0.000028489    0.000009902
      7        8          -0.007502884    0.008956724    0.003540829
      8        7          -0.002351586    0.000124571   -0.000032189
      9        6           0.005149927   -0.000645209   -0.000094549
     10        7          -0.002448257   -0.006620835   -0.002478655
     11        1           0.000855887   -0.000397439   -0.000110375
     12        1          -0.000434703   -0.000305222   -0.000093631
     13        1           0.000790685    0.000693382    0.000569376
     14       16           0.004144972    0.000191879   -0.000182581
     15        6          -0.001438340    0.000294068   -0.002884265
     16        1          -0.000810509   -0.000788129   -0.000807801
     17        1          -0.001075288    0.000661356   -0.000456138
     18        1           0.000273032    0.000277482   -0.001197080
     19        6          -0.001377330   -0.000865231    0.002838977
     20        1          -0.001084272    0.000405611    0.000719131
     21        1          -0.000792868   -0.001058773    0.000436316
     22        1           0.000268215   -0.000197154    0.001196204
     23        6          -0.001684134    0.002380505    0.000756980
     24        1          -0.000522193    0.000231808   -0.000112965
     25        1          -0.000549955    0.000125698    0.000155886
     26        1           0.000029009   -0.000143261   -0.000095202
     27        7           0.000024373    0.001511662    0.003310219
     28        1           0.000285938   -0.000067986    0.000879875
     29        6          -0.000632114   -0.000313480   -0.000315515
     30        1          -0.000870548    0.000514033    0.000054169
     31        6           0.000738777    0.002091268   -0.000669312
     32        6          -0.002190905    0.007017859   -0.000879147
     33        1           0.001044177    0.000366560   -0.000407812
     34        1           0.000029443    0.000377903   -0.000960443
     35        1           0.000266247    0.001188724   -0.000114661
     36        8           0.005395344   -0.008586098    0.004971684
     37        8          -0.001683228   -0.002365509   -0.006614896
     38        1          -0.000182300   -0.000351593    0.000830153
     39        1          -0.000826874    0.001430971   -0.000715779
 -------------------------------------------------------------------
 Cartesian Forces:  Max     0.008956724 RMS     0.002372391

 GradGradGradGradGradGradGradGradGradGradGradGradGradGradGradGradGradGrad
 Berny optimization.
 FormGI is forming the generalized inverse of G from B-inverse, IUseBI=4.
 GSVD:  received Info=                   1 from GESDD.
 Internal  Forces:  Max     0.012995802 RMS     0.002345276
 Search for a local minimum.
 Step number   1 out of a maximum of  211
 All quantities printed in internal units (Hartrees-Bohrs-Radians)
 Mixed Optimization -- RFO/linear search
 Second derivative matrix not updated -- first step.
 ITU=  0
     Eigenvalues ---    0.00230   0.00230   0.00230   0.00230   0.00230
     Eigenvalues ---    0.00238   0.00253   0.00308   0.00409   0.00795
     Eigenvalues ---    0.01136   0.01464   0.01558   0.01569   0.01651
     Eigenvalues ---    0.01774   0.01948   0.02085   0.02207   0.02267
     Eigenvalues ---    0.02386   0.02505   0.02509   0.02524   0.02597
     Eigenvalues ---    0.02597   0.04143   0.04482   0.04594   0.05290
     Eigenvalues ---    0.05371   0.05391   0.05503   0.05505   0.05774
     Eigenvalues ---    0.05850   0.05851   0.06300   0.06700   0.07321
     Eigenvalues ---    0.08163   0.12262   0.15193   0.15706   0.15999
     Eigenvalues ---    0.16000   0.16000   0.16000   0.16000   0.16000
     Eigenvalues ---    0.16000   0.16000   0.16000   0.16000   0.16000
     Eigenvalues ---    0.16000   0.16000   0.16000   0.16000   0.16000
     Eigenvalues ---    0.16000   0.16000   0.17095   0.18932   0.20307
     Eigenvalues ---    0.22076   0.23430   0.24919   0.24996   0.24998
     Eigenvalues ---    0.25000   0.25000   0.25000   0.25097   0.25106
     Eigenvalues ---    0.29004   0.29705   0.31050   0.32748   0.33784
     Eigenvalues ---    0.34289   0.34359   0.34577   0.34579   0.34586
     Eigenvalues ---    0.34587   0.34668   0.34676   0.34732   0.35163
     Eigenvalues ---    0.35464   0.35913   0.36007   0.39312   0.40389
     Eigenvalues ---    0.40727   0.41505   0.44589   0.44801   0.45749
     Eigenvalues ---    0.45857   0.47277   0.50130   0.52822   0.53183
     Eigenvalues ---    0.55505   0.57602   0.59131   0.97755   1.03635
     Eigenvalues --- 1000.000001000.000001000.000001000.000001000.00000
     Eigenvalues --- 1000.000001000.000001000.000001000.000001000.00000
     Eigenvalues --- 1000.000001000.000001000.000001000.000001000.00000
     Eigenvalues --- 1000.000001000.000001000.000001000.000001000.00000
     Eigenvalues --- 1000.000001000.000001000.000001000.000001000.00000
     Eigenvalues --- 1000.000001000.000001000.000001000.000001000.00000
     Eigenvalues --- 1000.000001000.000001000.000001000.000001000.00000
     Eigenvalues --- 1000.000001000.000001000.000001000.000001000.00000
     Eigenvalues --- 1000.000001000.000001000.000001000.000001000.00000
     Eigenvalues --- 1000.000001000.000001000.000001000.000001000.00000
     Eigenvalues --- 1000.000001000.000001000.000001000.000001000.00000
     Eigenvalues --- 1000.000001000.000001000.000001000.000001000.00000
     Eigenvalues --- 1000.000001000.000001000.000001000.000001000.00000
     Eigenvalues --- 1000.000001000.000001000.000001000.000001000.00000
     Eigenvalues --- 1000.000001000.000001000.000001000.000001000.00000
     Eigenvalues --- 1000.000001000.000001000.000001000.000001000.00000
     Eigenvalues --- 1000.000001000.000001000.000001000.000001000.00000
     Eigenvalues --- 1000.000001000.000001000.000001000.000001000.00000
     Eigenvalues --- 1000.00000
 RFO step:  Lambda=-8.67676651D-03 EMin= 2.30000000D-03
 Linear search not attempted -- first point.
 Maximum step size (   0.300) exceeded in Quadratic search.
    -- Step size scaled by   0.431
 Iteration  1 RMS(Cart)=  0.24466700 RMS(Int)=  0.01033815
 Iteration  2 RMS(Cart)=  0.13919282 RMS(Int)=  0.00223808
 Iteration  3 RMS(Cart)=  0.00807192 RMS(Int)=  0.00043564
 Iteration  4 RMS(Cart)=  0.00000679 RMS(Int)=  0.00043564
 Iteration  5 RMS(Cart)=  0.00000001 RMS(Int)=  0.00043564
 Iteration  1 RMS(Cart)=  0.00000003 RMS(Int)=  0.00000001
 Variable       Old X    -DE/DX   Delta X   Delta X   Delta X     New X
                                 (Linear)    (Quad)   (Total)
    R1        2.61127   0.00656   0.00000   0.00582   0.00584   2.61712
    R2        2.27217   0.01219   0.00000   0.00503   0.00506   2.27723
    R3        2.68481   0.00633   0.00000   0.00653   0.00652   2.69133
    R4        2.57211   0.00468   0.00000   0.00359   0.00360   2.57571
    R5        2.04218   0.00064   0.00000   0.00075   0.00075   2.04292
    R6        2.68040   0.00124   0.00000   0.00108   0.00105   2.68145
    R7        2.54056   0.00355   0.00000   0.00263   0.00266   2.54322
    R8        2.04928   0.00040   0.00000   0.00048   0.00048   2.04976
    R9        1.97277   0.00388   0.00000   0.00402   0.00392   1.97670
   R10        2.55814   0.00853   0.00000   0.00673   0.00670   2.56483
   R11        2.77371   0.00450   0.00000   0.00526   0.00526   2.77897
   R12        2.51634   0.00787   0.00000   0.00565   0.00565   2.52200
   R13        1.91116  -0.00081   0.00000  -0.00075  -0.00075   1.91041
   R14        1.90993   0.00003   0.00000   0.00003   0.00003   1.90996
   R15        3.22383   0.00258   0.00000   0.01360   0.01364   3.23747
   R16        3.42640   0.00606   0.00000   0.01006   0.01006   3.43646
   R17        3.42662   0.00612   0.00000   0.01017   0.01017   3.43679
   R18        5.64954   0.00101   0.00000   0.01794   0.01794   5.66748
   R19        5.68736   0.00107   0.00000   0.01822   0.01822   5.70557
   R20        2.06367   0.00116   0.00000   0.00141   0.00141   2.06508
   R21        2.06351   0.00114   0.00000   0.00139   0.00139   2.06489
   R22        2.06205   0.00119   0.00000   0.00145   0.00145   2.06350
   R23        2.06352   0.00114   0.00000   0.00139   0.00139   2.06491
   R24        2.06364   0.00118   0.00000   0.00143   0.00143   2.06507
   R25        2.06217   0.00117   0.00000   0.00142   0.00142   2.06358
   R26        2.06501   0.00038   0.00000   0.00076   0.00076   2.06577
   R27        2.06476   0.00032   0.00000   0.00076   0.00076   2.06552
   R28        2.05411  -0.00017   0.00000  -0.00020  -0.00020   2.05391
   R29        1.92456   0.00042   0.00000   0.00040   0.00040   1.92496
   R30        2.72500   0.00500   0.00000   0.00536   0.00536   2.73036
   R31        1.92207   0.00078   0.00000   0.00074   0.00074   1.92281
   R32        2.07695   0.00096   0.00000   0.00119   0.00119   2.07814
   R33        2.89995   0.00485   0.00000   0.00700   0.00700   2.90694
   R34        2.88556   0.00578   0.00000   0.00815   0.00815   2.89371
   R35        2.06845   0.00089   0.00000   0.00109   0.00109   2.06954
   R36        2.06728   0.00092   0.00000   0.00112   0.00112   2.06840
   R37        2.06113   0.00103   0.00000   0.00125   0.00125   2.06237
   R38        2.29551   0.01300   0.00000   0.00568   0.00568   2.30119
   R39        2.52890   0.00778   0.00000   0.00573   0.00573   2.53463
   R40        1.83484   0.00180   0.00000   0.00144   0.00144   1.83627
    A1        2.15872   0.00057   0.00000   0.00065   0.00059   2.15930
    A2        1.99076   0.00038   0.00000   0.00122   0.00130   1.99205
    A3        2.13371  -0.00095   0.00000  -0.00188  -0.00190   2.13181
    A4        2.12822  -0.00117   0.00000  -0.00195  -0.00196   2.12626
    A5        2.04912   0.00203   0.00000   0.00311   0.00312   2.05224
    A6        2.10585  -0.00086   0.00000  -0.00116  -0.00116   2.10469
    A7        2.12570   0.00064   0.00000   0.00066   0.00073   2.12642
    A8        2.13491  -0.00041   0.00000  -0.00056  -0.00059   2.13432
    A9        2.02258  -0.00023   0.00000  -0.00010  -0.00013   2.02245
   A10        2.16299  -0.00124   0.00000  -0.00222  -0.00235   2.16064
   A11        1.99246   0.00498   0.00000   0.01227   0.01226   2.00472
[...]
 00004202,-0.00016321,-0.00002623,-0.00000311,-0.00000284,-0.00000230,-
 0.00000464,0.00002264,-0.00000107,-0.00003178,-0.00001294,0.00000193,-
 0.00002972,-0.00002784,-0.00000839,0.00005651,0.00004744,0.00001194,-0
 .00002494,-0.00004958,-0.00001205,0.00000826,0.00000373,0.00000028,-0.
 00000338,0.00000870,0.00000088,0.00015810,0.00024403,0.00003782,0.0000
 0023,0.00000017,0.00000018,-0.00000043,-0.00000085,0.00000371,-0.00000
 095,-0.00000064,-0.00000118,-0.00000107,0.00000021,-0.00000106,0.00000
 071,0.00000026,0.00000082,0.,0.00000079,-0.00000429,-0.00000136,-0.000
 00036,0.00000098,-0.00000125,-0.00000107,0.00000089,0.00000077,0.00000
 041,-0.00000037,0.00001821,-0.00000023,0.00000002,-0.00000172,-0.00000
 240,-0.00000082,-0.00000184,-0.00000163,-0.00000034,0.00000442,0.00000
 388,0.00000036,0.00142326,0.00093192,-0.00091415,-0.00022558,-0.000400
 78,-0.00004485,-0.00600582,-0.01144997,-0.00421503,0.00031216,0.000930
 37,0.00013797,-0.08249506,-0.25037727,-0.09242632,-0.00104635,0.000979
 35,0.00275299,-0.00748705,-0.01615685,-0.00750534,0.00375635,0.0085130
 2,0.00308555,0.09155920,0.26688639,-0.00007120,-0.00001340,-0.00001367
 ,0.00001952,0.00004134,0.00001410,0.00007143,-0.00008168,-0.00002188,0
 .00007248,0.00021125,0.00005173,0.00000358,0.00000575,0.00000142,0.000
 00556,-0.00001755,-0.00000698,0.00002612,0.00001079,0.00000725,0.00002
 679,0.00002933,0.00001051,-0.00003024,-0.00003353,-0.00001231,0.000014
 53,0.00003368,0.00001063,-0.00000460,-0.00000187,-0.00000094,0.0000030
 1,-0.00000436,-0.00000156,-0.00023626,-0.00032750,-0.00006628,-0.00000
 026,-0.00000016,-0.00000004,0.00000051,0.00000054,-0.00000195,0.000000
 49,0.00000020,0.00000064,0.00000052,-0.00000002,0.00000061,-0.00000028
 ,-0.00000008,-0.00000028,0.00000018,-0.00000034,0.00000204,0.00000066,
 0.00000023,-0.00000042,0.00000060,0.00000044,-0.00000042,-0.00000044,-
 0.00000018,0.00000019,-0.00001216,0.00000292,0.,0.00000208,0.00000160,
 0.00000115,0.00000228,0.00000231,0.00000013,-0.00000321,-0.00000265,-0
 .00000106,-0.00037625,-0.00070604,0.00139466,-0.00001163,0.00023151,-0
 .00010981,0.01166091,0.02157332,0.00695716,-0.00098596,-0.00045451,0.0
 0087630,-0.04057269,-0.09428810,-0.08956323,0.00150344,-0.00082127,-0.
 00584240,-0.00149933,-0.00227118,-0.00184692,-0.00924687,-0.02496579,-
 0.00992761,0.03938001,0.09989014,0.09523719,0.00089172,0.00143010,0.00
 033727,0.00055410,-0.00126397,-0.00033202,-0.00338339,0.00014394,-0.00
 008828,0.00197298,-0.00931627,-0.00248642,-0.00013161,-0.00020621,-0.0
 0005724,0.00027186,-0.00075690,-0.00013601,-0.00047335,-0.00107673,-0.
 00024655,-0.00041794,-0.00109676,-0.00031158,0.00021997,0.00102780,0.0
 0027078,-0.00015532,-0.00074338,-0.00019456,0.00008440,0.00007492,0.00
 001772,-0.00007262,0.00008487,0.00001435,-0.00952609,0.00458638,-0.000
 86773,0.00000474,-0.00000135,0.00000053,-0.00000498,-0.00001340,0.0000
 4721,-0.00001432,-0.00000864,-0.00001518,-0.00001124,0.00000302,-0.000
 01312,0.00000752,0.00000605,0.00000998,-0.00000005,0.00000687,-0.00005
 282,-0.00001396,-0.00000337,0.00001208,-0.00001694,-0.00001392,0.00001
 089,0.00000843,0.00000781,-0.00000456,0.00028413,-0.00006620,-0.000010
 08,-0.00003457,-0.00004036,-0.00001135,-0.00003675,-0.00003118,-0.0000
 0971,0.00009070,0.00008664,0.00001610,-0.00114428,-0.00407415,0.000690
 67,0.00176456,0.00078779,0.00126867,0.01993661,-0.00798015,-0.00554946
 ,-0.00166182,-0.00455303,-0.00120843,-0.00050957,0.00190380,0.00150045
 ,-0.11332309,0.11300538,-0.05384614,0.00076075,0.00053913,-0.00023677,
 -0.00000042,-0.00039214,0.00046854,0.00070330,-0.00004911,-0.00044517,
 0.11269848,0.01134376,-0.00513006,-0.00040104,-0.00217904,-0.00393396,
 -0.00115337,-0.00602611,0.00615105,0.00144981,-0.01392565,-0.02767382,
 -0.00991586,-0.00029629,-0.00046640,-0.00008645,-0.00008653,0.00111292
 ,0.00032695,-0.00408799,0.00283560,-0.00003321,-0.00368076,-0.00076017
 ,-0.00030640,0.00411422,0.00280669,0.00102474,-0.00162573,-0.00294535,
 -0.00095354,0.00050865,0.00013063,0.00009754,-0.00019584,0.00044676,0.
 00015415,0.00898930,0.01767879,0.00519498,0.00000622,0.00004543,-0.000
 00388,-0.00002901,-0.00004262,0.00020826,-0.00004847,-0.00001613,-0.00
 006487,-0.00008012,-0.00000949,-0.00006089,0.00004084,-0.00000918,0.00
 001762,-0.00001988,0.00003884,-0.00017987,-0.00007223,-0.00002370,0.00
 004599,-0.00004101,-0.00003826,0.00004055,0.00004375,0.00000862,-0.000
 03029,0.00121993,-0.00030965,-0.00001171,-0.00020868,-0.00012438,-0.00
 010605,-0.00020728,-0.00021114,-0.00000464,0.00023810,0.00010934,0.000
 08994,-0.00008642,0.00169541,0.00118683,-0.00051913,0.00004204,-0.0005
 1993,0.01185707,-0.04316244,0.01944439,-0.00368368,-0.00537695,-0.0024
 6012,0.00244178,-0.00410200,-0.00713716,0.09963167,-0.63114781,0.15399
 981,-0.00135860,0.00049608,0.00055506,0.00018999,0.00032807,-0.0000126
 5,-0.00236700,-0.00044126,0.00219326,-0.13976352,0.70372156,0.00084255
 ,-0.00075271,-0.00059877,-0.00002225,-0.00032630,-0.00017062,-0.000591
 93,0.00031265,-0.00006206,-0.00174784,-0.00332471,0.00455060,-0.000024
 25,-0.00000496,-0.00010216,0.00004830,-0.00003264,-0.00021879,-0.00015
 461,0.00015308,0.00075403,-0.00026427,-0.00001228,-0.00021773,0.000177
 18,0.00028317,-0.00003693,-0.00007797,-0.00022370,0.00004380,0.0000258
 1,0.00002533,-0.00003574,-0.00001810,0.00003731,-0.00003111,-0.0025400
 4,-0.00189224,-0.01234616,0.00000124,-0.00000381,0.00000844,-0.0000036
 3,-0.00000020,0.00000016,0.00000091,-0.00000378,0.00000024,0.00000265,
 0.00000433,-0.00000139,0.00000190,0.00000410,0.00000992,0.00000254,0.0
 0000385,-0.00002745,-0.00000805,-0.00000391,0.00000370,-0.00000966,-0.
 00000474,0.00000687,0.00000146,-0.00000196,0.00000453,0.00007603,-0.00
 001834,-0.00002889,-0.00001143,-0.00003247,-0.00001071,-0.00001683,0.0
 0001632,0.00000733,0.00000709,0.00002403,-0.00004450,0.00116012,-0.006
 06182,0.00286813,0.00185447,-0.00003260,0.00005947,-0.00748582,-0.0025
 5271,0.01086608,0.00138659,-0.00107009,0.00028820,-0.00054554,-0.00309
 048,-0.00190292,-0.05221521,0.17151393,-0.14655830,-0.00001246,-0.0000
 0677,-0.00016556,-0.00003875,-0.00040758,0.00073879,-0.00063632,-0.000
 24004,0.00104595,0.09950217,-0.21345776,0.16811686,-0.00398524,0.00294
 294,0.00016443,0.00071411,0.00045686,0.00019481,0.00030153,-0.00081277
 ,-0.00027764,0.00273061,0.00315782,0.00104852,0.00002313,0.00005501,-0
 .00000152,0.00007821,-0.00037332,-0.00013108,0.00164766,-0.00223423,0.
 00015749,0.00086746,-0.00099946,-0.00023885,-0.00122952,0.00007124,-0.
 00013873,0.00035326,0.00020190,0.00014288,-0.00007830,0.00004884,-0.00
 002681,-0.00000866,-0.00003776,-0.00004290,-0.00423190,-0.00564236,-0.
 00174425,0.00000426,-0.00002387,0.00000547,0.00000458,-0.00000299,-0.0
 0001128,-0.00000189,-0.00000954,0.00000348,0.00001692,0.00001157,0.000
 00443,-0.00000436,0.00001590,0.00001284,0.00001072,-0.00000440,-0.0000
 1862,0.00000532,0.00000461,0.00000088,-0.00001247,-0.00000849,0.000003
 07,-0.00000402,0.00000771,0.00000640,-0.00013095,0.00006993,-0.0000110
 4,0.00004824,-0.00001566,0.00003030,0.00003372,0.00006181,-0.00000769,
 0.00000633,0.00008107,-0.00004556,-0.00256667,-0.00668404,-0.00476694,
 0.00155818,0.00085497,0.00091514,-0.00100320,0.00852873,-0.02117002,0.
 00044726,-0.00332773,-0.00084345,0.00110539,0.00074571,-0.00006501,-0.
 15983855,-0.03429183,-0.13179963,-0.00007986,0.00009852,-0.00002592,-0
 .00083806,-0.00039331,-0.00024015,-0.00012726,0.00022781,0.00003389,-0
 .01012204,0.04000812,-0.02959085,0.20896311,0.00111037,0.00053013,0.00
 006408,-0.00052887,-0.00068009,-0.00023396,-0.00078665,0.00121858,0.00
 036890,-0.00019428,-0.00196983,-0.00031720,-0.00004502,-0.00005010,-0.
 00001933,-0.00007672,0.00019283,0.00005711,-0.00053534,-0.00011603,-0.
 00001907,-0.00038717,-0.00033533,-0.00013787,0.00073055,0.00056648,0.0
 0018921,-0.00030939,-0.00060822,-0.00018081,0.00010607,0.00003565,0.00
 001664,-0.00004125,0.00009390,0.00002870,0.00161296,0.00312978,0.00087
 554,0.00000159,0.00000927,0.,-0.00000525,-0.00001005,0.00004632,-0.000
 01118,-0.00000450,-0.00001457,-0.00001734,-0.00000122,-0.00001334,0.00
 000936,-0.00000104,0.00000542,-0.00000273,0.00000851,-0.00004297,-0.00
 001657,-0.00000512,0.00001061,-0.00001058,-0.00000956,0.00000961,0.000
 00986,0.00000256,-0.00000645,0.00024537,-0.00001367,0.00000407,-0.0000
 2636,-0.00002600,-0.00001430,-0.00002561,-0.00003387,-0.00000427,0.000
 06692,0.00003832,0.00001807,-0.00477049,-0.00360381,-0.00500232,-0.000
 28037,-0.00065278,-0.00056971,-0.01192278,0.01076678,-0.01558451,-0.00
 048991,0.00187987,0.00028508,-0.00011144,-0.00087091,-0.00011319,0.006
 75018,-0.12301341,0.01139505,-0.00061291,-0.00011249,0.00005083,-0.000
 40700,0.00003558,-0.00084768,-0.00051931,0.00009099,-0.00014646,0.0484
 9688,-0.01767626,0.06047451,-0.08147335,0.58833223,-0.00306673,0.00144
 944,-0.00043957,0.00068489,0.00079588,0.00033574,0.00085875,-0.0011744
 8,-0.00046534,0.00184813,0.00446019,0.00209573,0.00004994,0.00010637,-
 0.00001762,0.00006243,-0.00036679,-0.00023651,0.00132196,-0.00112180,0
 .00055722,0.00085354,-0.00015447,0.00003426,-0.00115941,-0.00031171,-0
 .00032147,0.00040418,0.00051613,0.00029527,-0.00010816,0.00001895,-0.0
 0006652,0.00002297,-0.00006528,-0.00008440,-0.00374536,-0.00785358,-0.
 00406247,-0.00000038,-0.00001933,0.00001276,0.00000604,0.00000828,-0.0
 0004717,0.00001028,-0.00000457,0.00001497,0.00002390,0.00001062,0.0000
 1199,-0.00000737,0.00001195,0.00001262,0.00001381,-0.00000475,0.000000
 27,0.00000562,0.00000161,-0.00000528,-0.00000703,-0.00000060,0.0000005
 1,-0.00000774,-0.00000182,0.00001305,-0.00024761,0.00007275,-0.0000315
 9,0.00006062,-0.00000784,0.00003368,0.00004924,0.00009524,0.00000230,-
 0.00003643,0.00001685,-0.00008506,-0.00404172,-0.00614929,-0.00319134,
 0.00105095,0.00067398,0.00042300,-0.02024235,0.00697643,-0.00588702,0.
 00104294,0.00126958,-0.00036483,-0.00009066,-0.00033741,-0.00575806,-0
 .13306914,-0.03852917,-0.20564177,-0.00023661,-0.00004714,0.00009779,0
 .00008505,-0.00160122,0.00209670,-0.00074140,-0.00073767,0.00187522,-0
 .02949681,0.05137778,-0.02640299,0.21784792,-0.11112875,0.29044368,0.0
 0011127,-0.00013701,-0.00003888,-0.00000750,0.00002523,0.00000058,0.00
 004928,-0.00004472,-0.00000422,-0.00007309,0.00004595,0.00000461,0.000
 00211,0.00000183,0.00000338,-0.00000153,-0.00000255,0.00001054,-0.0000
 5438,0.00009600,0.00004575,-0.00001482,0.00007478,0.00001727,0.0000222
 5,-0.00004285,-0.00000740,0.00000036,0.00002938,0.00000447,-0.00000114
 ,-0.00000507,-0.00000014,0.00000380,-0.00000451,0.00000157,0.00000437,
 -0.00006309,-0.00002397,-0.00000062,0.00000166,0.00000047,-0.00000013,
 0.00000121,-0.00000285,0.00000120,0.00000090,0.00000109,-0.00000003,-0
 .00000062,0.00000044,-0.00000017,-0.00000090,-0.00000064,-0.00000021,-
 0.00000027,0.00000279,-0.00000026,-0.00000047,-0.00000089,0.00000124,0
 .00000133,-0.00000010,-0.00000009,-0.00000175,0.00000029,-0.00000484,-
 0.00000144,0.00000018,0.00000034,-0.00000008,-0.00000108,-0.00000062,0
 .00000061,0.00000143,-0.00000210,-0.00000597,-0.00000361,-0.22448137,-
 0.06383245,0.17501544,-0.01973003,-0.01650888,0.02007501,0.01224678,0.
 00491887,-0.01889786,0.00055287,0.00026440,0.00039555,-0.00099999,-0.0
 0011874,-0.00217279,0.00108395,0.00051763,-0.00139801,0.00019012,-0.00
 018087,-0.00036537,0.00076644,0.00034495,-0.00065765,-0.00016203,0.000
 17309,0.00004311,-0.00029783,0.00000876,-0.00016794,-0.00048729,-0.000
 01840,0.00010580,0.23116201,-0.00024587,-0.00010048,-0.00005023,0.0001
 4598,0.00015492,0.00005119,0.00014768,-0.00029195,-0.00008284,0.000083
 89,0.00044494,0.00013694,0.00000926,0.00000879,0.00000215,0.00001685,-
 0.00004390,-0.00002225,0.00011506,0.00003710,0.00001915,0.00009676,0.0
 0007912,0.00002572,-0.00019293,-0.00014992,-0.00005152,0.00008262,0.00
 015781,0.00004654,-0.00003016,-0.00001150,-0.00000389,0.00000932,-0.00
 002707,-0.00000723,-0.00033024,-0.00064634,-0.00020768,0.00000004,-0.0
 0000289,-0.00000093,0.00000135,0.00000310,-0.00001349,0.00000304,0.000
 00175,0.00000428,0.00000492,-0.00000022,0.00000422,-0.00000275,-0.0000
 0010,-0.00000264,-0.00000065,-0.00000273,0.00001483,0.00000612,0.00000
 173,-0.00000303,0.00000401,0.00000329,-0.00000343,-0.00000353,-0.00000
 036,0.00000168,-0.00006575,-0.00000021,-0.00000242,0.00000398,0.000006
 90,0.00000187,0.00000535,0.00000652,0.00000206,-0.00001797,-0.00001099
 ,-0.00000246,-0.09022837,-0.07711826,0.12631216,0.02117001,0.00684744,
 -0.02262659,-0.00729070,-0.00648742,-0.00466042,-0.00023721,-0.0002170
 2,0.00036367,0.00168646,-0.00032362,0.00272358,0.00076970,0.00260164,-
 0.00282679,-0.00019284,0.00008390,0.00000748,-0.00068945,0.00033419,0.
 00106724,0.00034222,0.00047601,-0.00023437,-0.00005190,-0.00019100,0.0
 0147953,0.00062330,-0.00019588,0.00110025,0.07440977,0.07443619,-0.000
 15546,-0.00017568,-0.00004192,0.00011904,0.00015715,0.00004255,0.00016
 504,-0.00028365,-0.00006737,0.00004191,0.00047844,0.00011407,0.0000093
 2,0.00001017,0.00000595,0.00001080,-0.00004579,-0.00001111,0.00007130,
 0.00010338,0.00001966,0.00007878,0.00012076,0.00003198,-0.00015132,-0.
 00015275,-0.00004036,0.00007074,0.00015369,0.00003703,-0.00002518,-0.0
 0001252,-0.00000040,0.00001026,-0.00002524,-0.00000234,-0.00032712,-0.
 00076258,-0.00020183,-0.00000075,-0.00000076,-0.00000102,0.00000173,0.
 00000296,-0.00001125,0.00000270,0.00000193,0.00000363,0.00000315,-0.00
 000080,0.00000334,-0.00000219,-0.00000084,-0.00000293,-0.00000023,-0.0
 0000239,0.00001444,0.00000473,0.00000132,-0.00000292,0.00000424,0.0000
 0335,-0.00000309,-0.00000268,-0.00000098,0.00000095,-0.00005795,-0.000
 00047,0.00000013,0.00000472,0.00000837,0.00000266,0.00000586,0.0000053
 7,0.00000120,-0.00001566,-0.00001454,-0.00000110,0.14965824,0.08586947
 ,-0.20087547,0.00139939,0.00185555,-0.00098644,0.02302485,0.01220725,-
 0.02565901,-0.00011016,0.00015547,0.00112511,-0.00475534,0.00053113,-0
 .00515800,0.00043814,0.00210999,-0.00142374,-0.00021689,-0.00027563,0.
 00022852,0.00134342,0.00083412,-0.00068949,-0.00019039,0.00005610,0.00
 026958,0.00046956,-0.00066423,0.00173371,0.00088571,0.00010876,0.00148
 665,-0.17192426,-0.10259436,0.23026757,0.00063456,-0.00020828,-0.00010
 243,-0.00014226,-0.00007879,-0.00002665,-0.00003225,0.00011138,0.00002
 889,-0.00020687,-0.00017998,0.00013244,-0.00000109,-0.00000198,-0.0000
 0458,0.00000039,0.00003613,-0.00000538,-0.00038917,0.00025682,0.000012
 27,-0.00014024,0.00019170,0.00004102,0.00025213,-0.00003889,0.00000239
 ,-0.00006831,-0.00002764,-0.00001310,0.00002106,-0.00001332,0.00000059
 ,0.00000633,0.00000362,0.00000181,-0.00014366,0.00041615,-0.00025154,-
 0.00000205,0.00001125,-0.00000011,-0.00000131,0.00000180,-0.00000032,0
 .00000218,0.00000467,-0.00000023,-0.00000641,-0.00000491,-0.00000070,0
 .00000205,-0.00000720,-0.00000435,-0.00000343,0.00000151,0.00000693,-0
 .00000324,-0.00000303,-0.00000064,0.00000450,0.00000419,-0.00000075,0.
 00000129,-0.00000445,-0.00000127,0.00004646,-0.00001098,-0.00000116,-0
 .00001129,0.00000103,-0.00000856,-0.00000484,-0.00001622,0.00000227,0.
 00001333,-0.00002418,0.00001251,0.00043619,0.00028549,0.00126492,-0.00
 000463,0.00013018,0.00002342,-0.00073258,-0.00137860,-0.00124270,0.000
 13731,0.00005079,-0.00043790,-0.00076438,0.00066881,-0.00152047,-0.007
 89628,0.03339654,-0.00102179,0.00027581,-0.00001181,0.00030387,-0.0007
 6860,-0.00138041,0.00146699,0.00040657,-0.00022920,0.00062486,0.001097
 93,-0.00005316,-0.00890726,-0.03416974,0.04448615,-0.03010408,0.000121
 70,-0.00015738,0.00011196,0.04203282,0.00002686,-0.00019509,-0.0000372
 5,0.00007095,0.00009661,0.00002247,0.00009648,-0.00018146,-0.00003461,
 -0.00004500,0.00031737,0.00003970,0.00000626,0.00000531,0.00000303,0.0
 0001118,-0.00003333,-0.00000105,-0.00003068,0.00014094,-0.00000573,0.0
 0003316,0.00013091,0.00003346,-0.00007471,-0.00013227,-0.00002913,0.00
 004542,0.00011733,0.00002769,-0.00001942,-0.00001327,-0.00000119,0.000
 00827,-0.00002051,-0.00000267,-0.00013296,-0.00027872,-0.00013385,-0.0
 0000020,-0.00000120,-0.00000063,-0.00000008,0.00000323,-0.00001160,0.0
 0000334,0.00000209,0.00000369,0.00000378,-0.00000060,0.00000306,-0.000
 00254,-0.00000103,-0.00000276,-0.00000083,-0.00000148,0.00001347,0.000
 00431,0.00000097,-0.00000308,0.00000395,0.00000338,-0.00000306,-0.0000
 0233,-0.00000129,0.00000135,-0.00004427,-0.00000432,-0.00000149,0.0000
 0034,0.00000706,-0.00000092,0.00000154,-0.00000013,0.00000222,-0.00001
 372,-0.00001583,0.00000223,0.00000371,-0.00100836,-0.00004088,-0.00010
 536,-0.00002703,0.00014148,-0.00272224,0.00240555,-0.00209136,0.000420
 59,-0.00002940,-0.00082905,-0.00026358,-0.00014919,-0.00096881,0.00205
 736,-0.00847602,0.00211877,0.00023141,-0.00004933,0.00020436,-0.000691
 77,0.00000529,0.00036671,-0.00007770,-0.00012477,0.00014242,-0.0006887
 5,0.00614420,-0.00077356,0.07806072,-0.45694130,0.10065539,0.00005428,
 0.00013653,0.00023848,-0.07622779,0.45816916,0.00003017,0.00034144,0.0
 0012157,-0.00008454,-0.00014738,-0.00007132,-0.00019666,0.00026379,0.0
 0008654,0.00016978,-0.00028082,0.00004590,-0.00000862,-0.00001366,0.00
 000527,-0.00000090,0.00001227,0.00001870,-0.00004001,-0.00021085,-0.00
 011464,-0.00004571,-0.00015580,-0.00007241,0.00011306,0.00011405,0.000
 07304,-0.00005329,-0.00012195,-0.00006989,0.00001937,0.00000247,0.0000
 2035,-0.00000909,0.00001081,0.00002086,-0.00006733,0.00032651,-0.00028
 886,0.00000137,0.00000243,-0.00000501,-0.00000068,-0.00000410,0.000015
 74,-0.00000463,0.00000037,-0.00000521,-0.00000603,-0.00000232,-0.00000
 284,0.00000213,-0.00000209,-0.00000358,-0.00000422,0.00000013,-0.00000
 045,0.00000081,0.00000111,0.00000209,0.00000147,-0.00000098,-0.0000006
 0,0.00000143,0.00000311,-0.00000421,0.00005547,-0.00000080,0.00001306,
 -0.00001034,0.00000186,-0.00000487,-0.00000502,-0.00002220,-0.00000316
 ,0.00001456,0.00001064,0.00002658,0.00184234,0.00005496,0.00063293,0.0
 0005356,-0.00011047,0.00044293,-0.00193508,-0.00001704,-0.00066131,0.0
 0048324,-0.00187622,-0.00118934,-0.00009048,-0.00054052,0.00136382,-0.
 00100559,0.04014220,-0.01074203,0.00027316,0.00010503,-0.00022518,0.00
 016390,0.00043797,-0.00016370,0.00006241,0.00014683,-0.00033868,-0.009
 01698,0.00015623,-0.00214402,-0.03025974,0.06038828,-0.04673439,-0.000
 06211,0.00003200,-0.00020895,0.03961884,-0.09904730,0.06016527\\0.0000
 0048,-0.00000009,-0.00000033,0.00000052,0.00000107,-0.00000324,0.00000
 023,0.00000102,-0.00000265,0.00000012,0.00000032,-0.00000133,0.0000006
 2,0.00000135,-0.00000437,0.00000029,0.00000113,-0.00000334,0.,-0.00000
 042,0.00000094,-0.00025972,0.00120125,0.00024565,0.00000048,0.00000075
 ,-0.00000226,0.00000060,0.00000060,-0.00000282,0.00000062,0.00000039,-
 0.00000213,0.00000078,0.00000100,-0.00000382,0.00000004,0.00000027,-0.
 00000093,-0.00022402,0.00046560,0.00009179,-0.00000068,-0.00000047,0.0
 0000252,-0.00000051,-0.00000045,0.00000201,-0.00000083,-0.00000089,0.0
 0000362,-0.00000154,0.00000026,0.00000229,0.00000175,-0.00000235,0.000
 00215,0.00000157,-0.00000272,0.00000333,0.00000190,-0.00000229,0.00000
 171,0.00000251,-0.00000281,0.00000179,0.00048488,-0.00166813,-0.000336
 61,0.00000116,-0.00000087,-0.00000017,-0.00000041,0.00000028,0.0000000
 6,0.00000017,-0.00000064,0.00000113,0.00000046,-0.00000042,0.,0.000000
 63,-0.00000008,-0.00000105,-0.00000060,0.00000036,0.00000076,-0.000000
 81,-0.00000012,0.00000180,-0.00000167,0.00000127,0.00000025,-0.0000004
 6,0.00000006,0.00000058,-0.00000159,0.00000168,-0.00000089,-0.00000257
 ,0.00000176,0.00000075,-0.00000167,0.00000113,0.00000055,-0.00000004,0
 .00000048,-0.00000078,-0.00000172,0.00000084,0.00000088,0.00000115,-0.
 00000107,0.00000033,-0.00000209,0.00000094,0.00000182\\\@


 HIGGLEDY-PIGGLEDY
 NIC'LAUS COPERNICUS
 LOOKED AT THE UNIVERSE,
 SPOKE TO THE THRONG;
 GIVE UP YOUR PTOLOMY,
 RISE UP AND FOLLOW ME,
 HELIOCENTRICALLY
 PTOLEMY'S WRONG.
   -- NANCY L. STARK
 Job cpu time:       0 days  0 hours 51 minutes 47.8 seconds.
 File lengths (MBytes):  RWF=    473 Int=      0 D2E=      0 Chk=      9 Scr=      1
 Normal termination of Gaussian 09 at Sun Apr  4 12:44:39 2021.
