 Entering Gaussian System, Link 0=g09
 Initial command:
 /opt/software/gaussian/g09.e01/l1.exe "/localscratch/enas93.64551472.0/Gau-4332.inp" -scrdir="/localscratch/enas93.64551472.0/"
 Entering Link 1 = /opt/software/gaussian/g09.e01/l1.exe PID=      4334.
  
 Copyright (c) 1988,1990,1992,1993,1995,1998,2003,2009,2015,
            Gaussian, Inc.  All Rights Reserved.
  
 This is part of the Gaussian(R) 09 program.  It is based on
 the Gaussian(R) 03 system (copyright 2003, Gaussian, Inc.),
 the Gaussian(R) 98 system (copyright 1998, Gaussian, Inc.),
 the Gaussian(R) 94 system (copyright 1995, Gaussian, Inc.),
 the Gaussian 92(TM) system (copyright 1992, Gaussian, Inc.),
 the Gaussian 90(TM) system (copyright 1990, Gaussian, Inc.),
 the Gaussian 88(TM) system (copyright 1988, Gaussian, Inc.),
 the Gaussian 86(TM) system (copyright 1986, Carnegie Mellon
 University), and the Gaussian 82(TM) system (copyright 1983,
 Carnegie Mellon University). Gaussian is a federally registered
 trademark of Gaussian, Inc.
  
 This software contains proprietary and confidential information,
 including trade secrets, belonging to Gaussian, Inc.
  
 This software is provided under written license and may be
 used, copied, transmitted, or stored only in accord with that
 written license.
  
 The following legend is applicable only to US Government
 contracts under FAR:
  
                    RESTRICTED RIGHTS LEGEND
  
 Use, reproduction and disclosure by the US Government is
 subject to restrictions as set forth in subparagraphs (a)
 and (c) of the Commercial Computer Software - Restricted
 Rights clause in FAR 52.227-19.
  
 Gaussian, Inc.
 340 Quinnipiac St., Bldg. 40, Wallingford CT 06492
  
  
 ---------------------------------------------------------------
 Warning -- This program may not be used in any manner that
 competes with the business of Gaussian, Inc. or will provide
 assistance to any competitor of Gaussian, Inc.  The licensee
 of this program is prohibited from giving any competitor of
 Gaussian, Inc. access to this program.  By using this program,
 the user acknowledges that Gaussian, Inc. is engaged in the
 business of creating and licensing software in the field of
 computational chemistry and represents and warrants to the
 licensee that it is not a competitor of Gaussian, Inc. and that
 it will not use this program in any manner prohibited above.
 ---------------------------------------------------------------
  

 Cite this work as:
 Gaussian 09, Revision E.01,
 M. J. Frisch, G. W. Trucks, H. B. Schlegel, G. E. Scuseria, 
 M. A. Robb, J. R. Cheeseman, G. Scalmani, V. Barone, B. Mennucci, 
 G. A. Petersson, H. Nakatsuji, M. Caricato, X. Li, H. P. Hratchian, 
 A. F. Izmaylov, J. Bloino, G. Zheng, J. L. Sonnenberg, M. Hada, 
 M. Ehara, K. Toyota, R. Fukuda, J. Hasegawa, M. Ishida, T. Nakajima, 
 Y. Honda, O. Kitao, H. Nakai, T. Vreven, J. A. Montgomery, Jr., 
 J. E. Peralta, F. Ogliaro, M. Bearpark, J. J. Heyd, E. Brothers, 
 K. N. Kudin, V. N. Staroverov, T. Keith, R. Kobayashi, J. Normand, 
 K. Raghavachari, A. Rendell, J. C. Burant, S. S. Iyengar, J. Tomasi, 
 M. Cossi, N. Rega, J. M. Millam, M. Klene, J. E. Knox, J. B. Cross, 
 V. Bakken, C. Adamo, J. Jaramillo, R. Gomperts, R. E. Stratmann, 
 O. Yazyev, A. J. Austin, R. Cammi, C. Pomelli, J. W. Ochterski, 
 R. L. Martin, K. Morokuma, V. G. Zakrzewski, G. A. Voth, 
 P. Salvador, J. J. Dannenberg, S. Dapprich, A. D. Daniels, 
 O. Farkas, J. B. Foresman, J. V. Ortiz, J. Cioslowski, 
 and D. J. Fox, Gaussian, Inc., Wallingford CT, 2013.
 
 ******************************************
 Gaussian 09:  EM64L-G09RevE.01 30-Nov-2015
                24-Mar-2021 
 ******************************************
 %nprocshared=16
 Will use up to   16 processors via shared memory.
 %mem=10GB
 ----------------------------------------------------
 # opt=(tight,modredundant) freq apfd/6-31g(d) nosymm
 ----------------------------------------------------
 1/7=10,14=-1,18=120,19=15,26=3,38=1/1,3;
 2/9=110,12=2,15=1,17=6,18=5,40=1/2;
 3/5=1,6=6,7=1,11=2,16=1,25=1,30=1,71=1,74=-44/1,2,3;
 4//1;
 5/5=2,38=5/2;
 6/7=2,8=2,9=2,10=2,28=1/1;
 7/30=1/1,2,3,16;
 1/7=10,14=-1,18=20,19=15,26=3/3(2);
 2/9=110,15=1/2;
 99//99;
 2/9=110,15=1/2;
 3/5=1,6=6,7=1,11=2,16=1,25=1,30=1,71=1,74=-44/1,2,3;
 4/5=5,16=3,69=1/1;
 5/5=2,38=5/2;
 7/30=1/1,2,3,16;
 1/7=10,14=-1,18=20,19=15,26=3/3(-5);
 2/9=110,15=1/2;
 6/7=2,8=2,9=2,10=2,19=2,28=1/1;
 99/9=1/99;
 -------------------
 Title Card Required
 -------------------
 Symbolic Z-matrix:
 Charge =  0 Multiplicity = 1
 C                    -2.08983  -1.74554  -0.19207 
 O                    -1.94156  -1.201     0.88619 
 O                    -3.26574  -1.80613  -0.82867 
 O                    -1.1579   -2.34217  -0.89789 
 H                    -3.86882  -1.23889  -0.31918 
 C                     2.88011   1.09338  -0.03222 
 C                     3.67305  -1.57032   0.50298 
 C                     4.56458  -0.56848   0.5388 
 N                     4.18241   0.71851   0.27433 
 H                     3.96523  -2.59138   0.70753 
 H                     5.61292  -0.71412   0.77155 
 O                     2.6003    2.25393  -0.24302 
 N                     1.96791   0.04871  -0.06921 
 C                     2.28255  -1.28805   0.17376 
 N                     1.34775  -2.16853   0.09416 
 H                    -0.26618  -2.22836  -0.4405 
 H                     1.71223  -3.09557   0.30312 
 H                     4.83882   1.48595   0.29976 
 S                    -2.97108   1.42317  -0.31999 
 C                    -3.54472   3.04596  -0.88815 
 H                    -4.3617    3.41487  -0.26258 
 H                    -2.72652   3.77066  -0.88489 
 H                    -3.90736   2.92939  -1.91106 
 C                    -2.43049   1.88691   1.34475 
 H                    -1.5979    2.59436   1.30014 
 H                    -3.25564   2.32544   1.91207 
 H                    -2.10632   0.96386   1.82699 
 C                     0.57059   0.38184  -0.35892 
 H                    -0.06484   0.01959   0.45215 
 H                     0.26018  -0.10131  -1.28889 
 H                     0.49683   1.46136  -0.45873 
 
 Add virtual bond connecting atoms H16        and N15        Dist= 3.21D+00.
 Add virtual bond connecting atoms H27        and O2         Dist= 4.47D+00.
 The following ModRedundant input section has been read:
 A      13      28      19 F                                                   
 

 GradGradGradGradGradGradGradGradGradGradGradGradGradGradGradGradGradGrad
 Berny optimization.
 Initialization pass.
                           ----------------------------
                           !    Initial Parameters    !
                           ! (Angstroms and Degrees)  !
 --------------------------                            --------------------------
 ! Name  Definition              Value          Derivative Info.                !
 --------------------------------------------------------------------------------
 ! R1    R(1,2)                  1.217          estimate D2E/DX2                !
 ! R2    R(1,3)                  1.3385         estimate D2E/DX2                !
 ! R3    R(1,4)                  1.3125         estimate D2E/DX2                !
 ! R4    R(2,27)                 2.3662         estimate D2E/DX2                !
 ! R5    R(3,5)                  0.9721         estimate D2E/DX2                !
 ! R6    R(4,16)                 1.0086         estimate D2E/DX2                !
 ! R7    R(6,9)                  1.3894         estimate D2E/DX2                !
 ! R8    R(6,12)                 1.2123         estimate D2E/DX2                !
 ! R9    R(6,13)                 1.3874         estimate D2E/DX2                !
 ! R10   R(7,8)                  1.3416         estimate D2E/DX2                !
 ! R11   R(7,10)                 1.0816         estimate D2E/DX2                !
 ! R12   R(7,14)                 1.4566         estimate D2E/DX2                !
 ! R13   R(8,9)                  1.3683         estimate D2E/DX2                !
 ! R14   R(8,11)                 1.0837         estimate D2E/DX2                !
 ! R15   R(9,18)                 1.0102         estimate D2E/DX2                !
 ! R16   R(13,14)                1.3946         estimate D2E/DX2                !
 ! R17   R(13,28)                1.4654         estimate D2E/DX2                !
 ! R18   R(14,15)                1.2866         estimate D2E/DX2                !
 ! R19   R(15,16)                1.7012         estimate D2E/DX2                !
 ! R20   R(15,17)                1.0178         estimate D2E/DX2                !
 ! R21   R(19,20)                1.8125         estimate D2E/DX2                !
 ! R22   R(19,24)                1.8107         estimate D2E/DX2                !
 ! R23   R(20,21)                1.0931         estimate D2E/DX2                !
 ! R24   R(20,22)                1.093          estimate D2E/DX2                !
 ! R25   R(20,23)                1.0915         estimate D2E/DX2                !
 ! R26   R(24,25)                1.0935         estimate D2E/DX2                !
 ! R27   R(24,26)                1.0932         estimate D2E/DX2                !
 ! R28   R(24,27)                1.0907         estimate D2E/DX2                !
 ! R29   R(28,29)                1.0922         estimate D2E/DX2                !
 ! R30   R(28,30)                1.093          estimate D2E/DX2                !
 ! R31   R(28,31)                1.0866         estimate D2E/DX2                !
 ! A1    A(2,1,3)              123.2746         estimate D2E/DX2                !
 ! A2    A(2,1,4)              126.3942         estimate D2E/DX2                !
 ! A3    A(3,1,4)              110.3307         estimate D2E/DX2                !
 ! A4    A(1,2,27)             138.8638         estimate D2E/DX2                !
 ! A5    A(1,3,5)              105.6236         estimate D2E/DX2                !
 ! A6    A(1,4,16)             109.4259         estimate D2E/DX2                !
 ! A7    A(9,6,12)             120.8636         estimate D2E/DX2                !
 ! A8    A(9,6,13)             114.7715         estimate D2E/DX2                !
 ! A9    A(12,6,13)            124.3647         estimate D2E/DX2                !
 ! A10   A(8,7,10)             121.361          estimate D2E/DX2                !
 ! A11   A(8,7,14)             119.7176         estimate D2E/DX2                !
 ! A12   A(10,7,14)            118.92           estimate D2E/DX2                !
 ! A13   A(7,8,9)              120.7712         estimate D2E/DX2                !
 ! A14   A(7,8,11)             123.2465         estimate D2E/DX2                !
 ! A15   A(9,8,11)             115.9823         estimate D2E/DX2                !
 ! A16   A(6,9,8)              123.9306         estimate D2E/DX2                !
 ! A17   A(6,9,18)             114.1819         estimate D2E/DX2                !
 ! A18   A(8,9,18)             121.8829         estimate D2E/DX2                !
 ! A19   A(6,13,14)            124.6635         estimate D2E/DX2                !
 ! A20   A(6,13,28)            117.4547         estimate D2E/DX2                !
 ! A21   A(14,13,28)           117.8705         estimate D2E/DX2                !
 ! A22   A(7,14,13)            116.1367         estimate D2E/DX2                !
 ! A23   A(7,14,15)            125.0973         estimate D2E/DX2                !
 ! A24   A(13,14,15)           118.766          estimate D2E/DX2                !
 ! A25   A(14,15,16)           137.1195         estimate D2E/DX2                !
 ! A26   A(14,15,17)           110.5126         estimate D2E/DX2                !
 ! A27   A(16,15,17)           111.8526         estimate D2E/DX2                !
 ! A28   A(20,19,24)            98.8228         estimate D2E/DX2                !
 ! A29   A(19,20,21)           111.0574         estimate D2E/DX2                !
 ! A30   A(19,20,22)           110.8412         estimate D2E/DX2                !
 ! A31   A(19,20,23)           107.6548         estimate D2E/DX2                !
 ! A32   A(21,20,22)           109.5126         estimate D2E/DX2                !
 ! A33   A(21,20,23)           108.9073         estimate D2E/DX2                !
 ! A34   A(22,20,23)           108.8024         estimate D2E/DX2                !
 ! A35   A(19,24,25)           110.8244         estimate D2E/DX2                !
 ! A36   A(19,24,26)           110.7639         estimate D2E/DX2                !
 ! A37   A(19,24,27)           106.1699         estimate D2E/DX2                !
 ! A38   A(25,24,26)           109.6558         estimate D2E/DX2                !
 ! A39   A(25,24,27)           109.8317         estimate D2E/DX2                !
 ! A40   A(26,24,27)           109.5348         estimate D2E/DX2                !
 ! A41   A(2,27,24)            128.2557         estimate D2E/DX2                !
 ! A42   A(13,28,19)           167.6346         Frozen                          !
 ! A43   A(13,28,29)           109.424          estimate D2E/DX2                !
 ! A44   A(13,28,30)           109.7873         estimate D2E/DX2                !
 ! A45   A(13,28,31)           107.9827         estimate D2E/DX2                !
 ! A46   A(29,28,30)           108.6636         estimate D2E/DX2                !
 ! A47   A(29,28,31)           110.9911         estimate D2E/DX2                !
 ! A48   A(30,28,31)           109.9818         estimate D2E/DX2                !
 ! A49   L(4,16,15,22,-1)      185.2136         estimate D2E/DX2                !
 ! A50   L(4,16,15,22,-2)      188.801          estimate D2E/DX2                !
 ! D1    D(3,1,2,27)           -63.6781         estimate D2E/DX2                !
 ! D2    D(4,1,2,27)           116.0182         estimate D2E/DX2                !
 ! D3    D(2,1,3,5)              7.8591         estimate D2E/DX2                !
 ! D4    D(4,1,3,5)           -171.8803         estimate D2E/DX2                !
 ! D5    D(2,1,4,16)            -3.9679         estimate D2E/DX2                !
 ! D6    D(3,1,4,16)           175.7614         estimate D2E/DX2                !
 ! D7    D(1,2,27,24)            3.5272         estimate D2E/DX2                !
 ! D8    D(1,4,15,14)          -75.8048         estimate D2E/DX2                !
 ! D9    D(1,4,15,17)          118.7956         estimate D2E/DX2                !
 ! D10   D(12,6,9,8)           179.1864         estimate D2E/DX2                !
 ! D11   D(12,6,9,18)           -0.0455         estimate D2E/DX2                !
 ! D12   D(13,6,9,8)            -0.7106         estimate D2E/DX2                !
 ! D13   D(13,6,9,18)         -179.9426         estimate D2E/DX2                !
 ! D14   D(9,6,13,14)           -0.0263         estimate D2E/DX2                !
 ! D15   D(9,6,13,28)          178.7221         estimate D2E/DX2                !
 ! D16   D(12,6,13,14)        -179.9192         estimate D2E/DX2                !
 ! D17   D(12,6,13,28)          -1.1708         estimate D2E/DX2                !
 ! D18   D(10,7,8,9)           179.8178         estimate D2E/DX2                !
 ! D19   D(10,7,8,11)           -0.0911         estimate D2E/DX2                !
 ! D20   D(14,7,8,9)             0.2462         estimate D2E/DX2                !
 ! D21   D(14,7,8,11)         -179.6627         estimate D2E/DX2                !
 ! D22   D(8,7,14,13)           -0.893          estimate D2E/DX2                !
 ! D23   D(8,7,14,15)          179.111          estimate D2E/DX2                !
 ! D24   D(10,7,14,13)         179.525          estimate D2E/DX2                !
 ! D25   D(10,7,14,15)          -0.471          estimate D2E/DX2                !
 ! D26   D(7,8,9,6)              0.6062         estimate D2E/DX2                !
 ! D27   D(7,8,9,18)           179.7811         estimate D2E/DX2                !
 ! D28   D(11,8,9,6)          -179.4785         estimate D2E/DX2                !
 ! D29   D(11,8,9,18)           -0.3037         estimate D2E/DX2                !
 ! D30   D(6,13,14,7)            0.7904         estimate D2E/DX2                !
 ! D31   D(6,13,14,15)        -179.2133         estimate D2E/DX2                !
 ! D32   D(28,13,14,7)        -177.9533         estimate D2E/DX2                !
 ! D33   D(28,13,14,15)          2.043          estimate D2E/DX2                !
 ! D34   D(6,13,28,29)        -123.2759         estimate D2E/DX2                !
 ! D35   D(6,13,28,30)         117.5489         estimate D2E/DX2                !
 ! D36   D(6,13,28,31)          -2.3581         estimate D2E/DX2                !
 ! D37   D(14,13,28,29)         55.5596         estimate D2E/DX2                !
 ! D38   D(14,13,28,30)        -63.6156         estimate D2E/DX2                !
 ! D39   D(14,13,28,31)        176.4774         estimate D2E/DX2                !
 ! D40   D(7,14,15,16)        -170.1596         estimate D2E/DX2                !
 ! D41   D(7,14,15,17)           0.5656         estimate D2E/DX2                !
 ! D42   D(13,14,15,16)          9.8444         estimate D2E/DX2                !
 ! D43   D(13,14,15,17)       -179.4303         estimate D2E/DX2                !
 ! D44   D(24,19,20,21)        -61.1792         estimate D2E/DX2                !
 ! D45   D(24,19,20,22)         60.7954         estimate D2E/DX2                !
 ! D46   D(24,19,20,23)        179.682          estimate D2E/DX2                !
 ! D47   D(20,19,24,25)        -63.9515         estimate D2E/DX2                !
 ! D48   D(20,19,24,26)         57.9921         estimate D2E/DX2                !
 ! D49   D(20,19,24,27)        176.8259         estimate D2E/DX2                !
 ! D50   D(19,24,27,2)           4.8335         estimate D2E/DX2                !
 ! D51   D(25,24,27,2)        -115.038          estimate D2E/DX2                !
 ! D52   D(26,24,27,2)         124.473          estimate D2E/DX2                !
 --------------------------------------------------------------------------------
 Trust Radius=3.00D-01 FncErr=1.00D-07 GrdErr=1.00D-06
 Number of steps in this run=    143 maximum allowed number of steps=    186.
 GradGradGradGradGradGradGradGradGradGradGradGradGradGradGradGradGradGrad

                          Input orientation:                          
 ---------------------------------------------------------------------
 Center     Atomic      Atomic             Coordinates (Angstroms)
 Number     Number       Type             X           Y           Z
 ---------------------------------------------------------------------
      1          6           0       -2.089835   -1.745542   -0.192068
      2          8           0       -1.941559   -1.201001    0.886189
      3          8           0       -3.265740   -1.806131   -0.828671
      4          8           0       -1.157903   -2.342172   -0.897887
      5          1           0       -3.868817   -1.238888   -0.319177
      6          6           0        2.880110    1.093379   -0.032224
      7          6           0        3.673053   -1.570316    0.502978
      8          6           0        4.564577   -0.568484    0.538800
      9          7           0        4.182405    0.718514    0.274329
     10          1           0        3.965227   -2.591384    0.707532
     11          1           0        5.612918   -0.714120    0.771549
     12          8           0        2.600298    2.253934   -0.243015
     13          7           0        1.967907    0.048709   -0.069207
     14          6           0        2.282554   -1.288047    0.173760
     15          7           0        1.347746   -2.168526    0.094158
     16          1           0       -0.266180   -2.228359   -0.440497
     17          1           0        1.712234   -3.095573    0.303116
     18          1           0        4.838818    1.485953    0.299756
     19         16           0       -2.971083    1.423171   -0.319989
     20          6           0       -3.544715    3.045962   -0.888145
     21          1           0       -4.361700    3.414872   -0.262576
     22          1           0       -2.726516    3.770659   -0.884886
     23          1           0       -3.907357    2.929392   -1.911055
     24          6           0       -2.430494    1.886905    1.344752
     25          1           0       -1.597903    2.594356    1.300137
     26          1           0       -3.255642    2.325438    1.912072
     27          1           0       -2.106320    0.963856    1.826992
     28          6           0        0.570592    0.381839   -0.358919
     29          1           0       -0.064841    0.019590    0.452154
     30          1           0        0.260181   -0.101313   -1.288894
     31          1           0        0.496829    1.461356   -0.458725
 ---------------------------------------------------------------------
                    Distance matrix (angstroms):
                    1          2          3          4          5
     1  C    0.000000
     2  O    1.217025   0.000000
     3  O    1.338539   2.249529   0.000000
     4  O    1.312496   2.258166   2.176030   0.000000
     5  H    1.854085   2.273470   0.972137   2.983487   0.000000
     6  C    5.725852   5.418132   6.842000   5.371958   7.146316
     7  C    5.807295   5.639779   7.069353   5.088843   7.593786
     8  C    6.797119   6.546034   8.044601   6.160910   8.503393
     9  N    6.755005   6.446848   7.941367   6.265842   8.306976
    10  H    6.179685   6.070849   7.433937   5.374564   8.015960
    11  H    7.831015   7.571018   9.087561   7.161116   9.558680
    12  O    6.164069   5.817228   7.158039   5.973033   7.352214
    13  N    4.438435   4.214081   5.604309   4.021655   5.982285
    14  C    4.411453   4.284654   5.661876   3.754511   6.171286
    15  N    3.475313   3.518941   4.718813   2.700478   5.314847
    16  H    1.902773   2.371172   3.053902   1.008627   3.738016
    17  H    4.064913   4.156871   5.265342   3.201204   5.914614
    18  H    7.660984   7.316908   8.820149   7.214538   9.144985
    19  S    3.291459   3.066115   3.282373   4.218933   2.809357
    20  C    5.055661   4.873917   4.860470   5.893128   4.334594
    21  H    5.638813   5.336949   5.364743   6.619025   4.680130
    22  H    5.595876   5.335754   5.603080   6.310897   5.169182
    23  H    5.302199   5.361817   4.899837   6.031202   4.462076
    24  C    3.958855   3.159826   4.365767   4.953182   3.822043
    25  H    4.615559   3.833300   5.165055   5.421643   4.740568
    26  H    4.728572   3.900644   4.957987   5.838061   4.249574
    27  H    3.379011   2.366192   4.008694   4.387970   3.544646
    28  C    3.410493   3.219717   4.441320   3.270844   4.726171
    29  H    2.762483   2.280416   3.901221   2.931777   4.080313
    30  H    3.070683   3.284503   3.943390   2.680541   4.391247
    31  H    4.128696   3.852619   4.997025   4.171070   5.135139
                    6          7          8          9         10
     6  C    0.000000
     7  C    2.830278   0.000000
     8  C    2.434191   1.341553   0.000000
     9  N    1.389414   2.355942   1.368344   0.000000
    10  H    3.911802   1.081567   2.116557   3.345184   0.000000
    11  H    3.373625   2.137353   1.083698   2.084715   2.498620
    12  O    1.212277   4.041311   3.526425   2.264558   5.122858
    13  N    1.387378   2.419951   2.737388   2.338944   3.400397
    14  C    2.463878   1.456553   2.420466   2.765110   2.194308
    15  N    3.606125   2.435578   3.620199   4.050031   2.721441
    16  H    4.593449   4.103745   5.201002   5.383767   4.399382
    17  H    4.361617   2.492221   3.818061   4.544209   2.343872
    18  H    2.025059   3.277360   2.086399   1.010192   4.189764
    19  S    5.867540   7.333675   7.841580   7.212638   8.079904
    20  C    6.769310   8.679944   8.992275   8.153327   9.524972
    21  H    7.608298   9.486592   9.807535   8.975541  10.312804
    22  H    6.271293   8.450246   8.603202   7.641502   9.369675
    23  H    7.278094   9.139887   9.487391   8.666495   9.965618
    24  C    5.543308   7.065002   7.457179   6.800101   7.833669
    25  H    4.907211   6.764831   6.968454   6.163037   7.628335
    26  H    6.553298   8.072748   8.450828   7.783890   8.818560
    27  H    5.323340   6.447960   6.964795   6.482208   7.124367
    28  C    2.438625   3.765507   4.202491   3.682329   4.636908
    29  H    3.171810   4.062294   4.667424   4.308041   4.808727
    30  H    3.141741   4.125102   4.699632   4.301119   4.890147
    31  H    2.448946   4.494920   4.654233   3.830490   5.460279
                   11         12         13         14         15
    11  H    0.000000
    12  O    4.349088   0.000000
    13  N    3.817707   2.300684   0.000000
    14  C    3.431919   3.580544   1.394615   0.000000
    15  N    4.556956   4.608766   2.308120   1.286641   0.000000
    16  H    6.190781   5.324157   3.211548   2.785237   1.701233
    17  H    4.594136   5.450151   3.176555   1.899776   1.017807
    18  H    2.379525   2.428038   3.231708   3.774313   5.058169
    19  S    8.913167   5.633505   5.132802   5.932554   5.632414
    20  C   10.037681   6.229341   6.327969   7.339505   7.217477
    21  H   10.844860   7.058157   7.171636   8.151929   7.993708
    22  H    9.612657   5.575608   6.046144   7.197362   7.268566
    23  H   10.540739   6.751902   6.797754   7.774847   7.591163
    24  C    8.472920   5.288155   4.972341   5.802100   5.682042
    25  H    7.951186   4.485766   4.590253   5.603546   5.728549
    26  H    9.444102   6.240316   6.032779   6.837442   6.685185
    27  H    7.969705   5.301083   4.586108   5.202543   4.974445
    28  C    5.282437   2.763671   1.465400   2.450118   2.704368
    29  H    5.733872   3.546621   2.098745   2.701422   2.628957
    30  H    5.768254   3.480977   2.103918   2.763637   2.714590
    31  H    5.693912   2.258161   2.076383   3.338872   3.769056
                   16         17         18         19         20
    16  H    0.000000
    17  H    2.284544   0.000000
    18  H    6.356500   5.546703   0.000000
    19  S    4.545844   6.537642   7.834704   0.000000
    20  C    6.226367   8.171479   8.609783   1.812541   0.000000
    21  H    6.975027   8.921803   9.417350   2.429812   1.093113
    22  H    6.499150   8.261900   7.991091   2.426854   1.092999
    23  H    6.482523   8.531270   9.136015   2.382604   1.091532
    24  C    4.980639   6.562948   7.354976   1.810704   2.751496
    25  H    5.297346   6.657804   6.607624   2.425305   2.963546
    26  H    5.933678   7.527011   8.296058   2.424285   2.905845
    27  H    4.326414   5.777761   7.130216   2.359727   3.711619
    28  C    2.742257   3.719413   4.457653   3.691795   4.930860
    29  H    2.427064   3.589491   5.120480   3.318507   4.802588
    30  H    2.349714   3.688976   5.099719   3.701877   4.954107
    31  H    3.767826   4.777365   4.407807   3.470896   4.362276
                   21         22         23         24         25
    21  H    0.000000
    22  H    1.785408   0.000000
    23  H    1.777527   1.776271   0.000000
    24  C    2.940705   2.933845   3.724001   0.000000
    25  H    3.279313   2.726129   3.969582   1.093474   0.000000
    26  H    2.671951   3.192430   3.925021   1.093175   1.787423
    27  H    3.931986   3.951844   4.591303   1.090717   1.787343
    28  C    5.791034   4.757275   5.380630   3.764869   3.514266
    29  H    5.522841   4.789855   5.368113   3.143233   3.114286
    30  H    5.897344   4.906704   5.190436   4.257797   4.173990
    31  H    5.240229   3.988038   4.864283   3.464512   2.960606
                   26         27         28         29         30
    26  H    0.000000
    27  H    1.783840   0.000000
    28  C    4.855414   3.504684   0.000000
    29  H    4.198751   2.636182   1.092172   0.000000
    30  H    5.338194   4.055078   1.092998   1.775248   0.000000
    31  H    4.521986   3.499770   1.086627   1.795512   1.785250
                   31
    31  H    0.000000
 Symmetry turned off by external request.
 Stoichiometry    C8H15N3O4S
 Framework group  C1[X(C8H15N3O4S)]
 Deg. of freedom    87
 Full point group                 C1      NOp   1
 Rotational constants (GHZ):      0.6414855      0.2423350      0.1874908
 Standard basis: 6-31G(d) (6D, 7F)
   274 basis functions,   532 primitive gaussians,   274 cartesian basis functions
    66 alpha electrons       66 beta electrons
       nuclear repulsion energy      1256.9610578361 Hartrees.
 NAtoms=   31 NActive=   31 NUniq=   31 SFac= 1.00D+00 NAtFMM=   60 NAOKFM=F Big=F
 Integral buffers will be    131072 words long.
 Raffenetti 2 integral format.
 Two-electron integral symmetry is turned off.
 R6APFD:  NTU= -4 IXU= 1 FactS= 1.050
 Nuclear repulsion after empirical dispersion term =     1256.9354057241 Hartrees.
 One-electron integrals computed using PRISM.
 NBasis=   274 RedAO= T EigKep=  1.08D-03  NBF=   274
 NBsUse=   274 1.00D-06 EigRej= -1.00D+00 NBFU=   274
 ExpMin= 1.17D-01 ExpMax= 2.19D+04 ExpMxC= 3.30D+03 IAcc=1 IRadAn=         1 AccDes= 0.00D+00
 Harris functional with IExCor= 3731 and IRadAn=       1 diagonalized for initial guess.
 HarFok:  IExCor= 3731 AccDes= 0.00D+00 IRadAn=         1 IDoV= 1 UseB2=F ITyADJ=14
 ICtDFT=  3500011 ScaDFX=  1.000000  1.000000  1.000000  1.000000
 FoFCou: FMM=F IPFlag=           0 FMFlag=      100000 FMFlg1=           0
         NFxFlg=           0 DoJE=T BraDBF=F KetDBF=T FulRan=T
         wScrn=  0.000000 ICntrl=     500 IOpCl=  0 I1Cent=   200000004 NGrid=           0
         NMat0=    1 NMatS0=      1 NMatT0=    0 NMatD0=    1 NMtDS0=    0 NMtDT0=    0
 Symmetry not used in FoFCou.
 Keep R1 ints in memory in canonical form, NReq=720369818.
 Requested convergence on RMS density matrix=1.00D-08 within 128 cycles.
 Requested convergence on MAX density matrix=1.00D-06.
 Requested convergence on             energy=1.00D-06.
 No special actions if energy rises.
 Integral accuracy reduced to 1.0D-05 until final iterations.
 Initial convergence to 1.0D-05 achieved.  Increase integral accuracy.
 SCF Done:  E(RAPFD) =  -1176.55314648     A.U. after   15 cycles
            NFock= 15  Conv=0.84D-08     -V/T= 2.0067

 **********************************************************************

            Population analysis using the SCF density.

 **********************************************************************

 Alpha  occ. eigenvalues --  -88.94664 -19.21193 -19.19543 -19.17391 -19.14826
 Alpha  occ. eigenvalues --  -14.44544 -14.43604 -14.36030 -10.36217 -10.35671
 Alpha  occ. eigenvalues --  -10.31515 -10.29819 -10.24085 -10.22581 -10.22281
 Alpha  occ. eigenvalues --  -10.21532  -7.96185  -5.90981  -5.90610  -5.89911
 Alpha  occ. eigenvalues --   -1.13472  -1.10141  -1.03971  -1.01532  -1.00362
 Alpha  occ. eigenvalues --   -0.98611  -0.91215  -0.81708  -0.80233  -0.74827
 Alpha  occ. eigenvalues --   -0.70755  -0.68590  -0.66870  -0.64832  -0.60004
 Alpha  occ. eigenvalues --   -0.59818  -0.57744  -0.52783  -0.51129  -0.50329
 Alpha  occ. eigenvalues --   -0.49762  -0.48175  -0.47259  -0.46582  -0.45691
 Alpha  occ. eigenvalues --   -0.44425  -0.43871  -0.43688  -0.43399  -0.42471
 Alpha  occ. eigenvalues --   -0.41753  -0.40533  -0.39594  -0.39214  -0.37559
 Alpha  occ. eigenvalues --   -0.36379  -0.35698  -0.32526  -0.30851  -0.30716
 Alpha  occ. eigenvalues --   -0.29671  -0.29255  -0.27398  -0.26514  -0.25204
 Alpha  occ. eigenvalues --   -0.21815
 Alpha virt. eigenvalues --   -0.03966   0.01234   0.05848   0.06246   0.07503
 Alpha virt. eigenvalues --    0.09950   0.10344   0.10868   0.11808   0.11941
 Alpha virt. eigenvalues --    0.13465   0.15034   0.15160   0.16194   0.16550
 Alpha virt. eigenvalues --    0.17388   0.18638   0.18850   0.19831   0.20296
 Alpha virt. eigenvalues --    0.21479   0.22674   0.23874   0.24895   0.28109
 Alpha virt. eigenvalues --    0.28737   0.31094   0.34093   0.37251   0.37719
 Alpha virt. eigenvalues --    0.39337   0.40764   0.41562   0.43613   0.45056
 Alpha virt. eigenvalues --    0.46988   0.47016   0.47918   0.48671   0.51571
 Alpha virt. eigenvalues --    0.52276   0.52560   0.54575   0.55900   0.58397
 Alpha virt. eigenvalues --    0.58835   0.59116   0.59550   0.60478   0.61311
 Alpha virt. eigenvalues --    0.61867   0.62605   0.63185   0.65055   0.66542
 Alpha virt. eigenvalues --    0.67113   0.67372   0.72500   0.75954   0.76264
 Alpha virt. eigenvalues --    0.78287   0.79463   0.81158   0.81731   0.82335
 Alpha virt. eigenvalues --    0.82843   0.83073   0.84299   0.84843   0.85398
 Alpha virt. eigenvalues --    0.85777   0.87238   0.87506   0.88115   0.89269
 Alpha virt. eigenvalues --    0.89807   0.90975   0.91734   0.92175   0.92846
 Alpha virt. eigenvalues --    0.93613   0.94833   0.95308   0.97414   0.97615
 Alpha virt. eigenvalues --    0.99051   0.99919   1.00817   1.01869   1.04025
 Alpha virt. eigenvalues --    1.05359   1.06012   1.06221   1.08194   1.08831
 Alpha virt. eigenvalues --    1.09984   1.11959   1.13443   1.17214   1.17898
 Alpha virt. eigenvalues --    1.19715   1.21680   1.25470   1.27091   1.28334
 Alpha virt. eigenvalues --    1.30928   1.32198   1.33303   1.35691   1.36380
 Alpha virt. eigenvalues --    1.38717   1.39667   1.41244   1.42005   1.43041
 Alpha virt. eigenvalues --    1.43537   1.44593   1.47108   1.49640   1.59298
 Alpha virt. eigenvalues --    1.60471   1.64574   1.67399   1.69340   1.69792
 Alpha virt. eigenvalues --    1.70156   1.73051   1.74036   1.74153   1.74493
 Alpha virt. eigenvalues --    1.75583   1.76806   1.77356   1.79300   1.80071
 Alpha virt. eigenvalues --    1.82134   1.84430   1.85227   1.87646   1.89070
 Alpha virt. eigenvalues --    1.90875   1.91908   1.93376   1.94813   1.95318
 Alpha virt. eigenvalues --    1.97977   2.01089   2.04123   2.08958   2.10489
 Alpha virt. eigenvalues --    2.12242   2.13504   2.15371   2.16004   2.16951
 Alpha virt. eigenvalues --    2.18146   2.23127   2.23491   2.24075   2.25681
 Alpha virt. eigenvalues --    2.26565   2.27287   2.28061   2.29129   2.34245
 Alpha virt. eigenvalues --    2.34771   2.40537   2.42607   2.46828   2.49267
 Alpha virt. eigenvalues --    2.50988   2.54894   2.56622   2.59262   2.63008
 Alpha virt. eigenvalues --    2.64749   2.67227   2.69192   2.72019   2.72306
 Alpha virt. eigenvalues --    2.76664   2.77669   2.80616   2.84558   2.92461
 Alpha virt. eigenvalues --    2.96327   2.99462   3.00205   3.05671   3.17311
 Alpha virt. eigenvalues --    3.23741   3.42605   3.91067   3.93559   3.96234
 Alpha virt. eigenvalues --    3.99348   4.04027   4.12107   4.12827   4.23201
 Alpha virt. eigenvalues --    4.23641   4.25855   4.27678   4.29554   4.32888
 Alpha virt. eigenvalues --    4.38331   4.54649   4.65387
          Condensed to atoms (all electrons):
               1          2          3          4          5          6
     1  C    4.086009   0.507537   0.322719   0.371638  -0.014110   0.000002
     2  O    0.507537   8.141037  -0.084787  -0.080964   0.005240  -0.000001
     3  O    0.322719  -0.084787   8.194714  -0.090766   0.233409  -0.000000
     4  O    0.371638  -0.080964  -0.090766   8.271565   0.005294  -0.000002
     5  H   -0.014110   0.005240   0.233409   0.005294   0.317363  -0.000000
     6  C    0.000002  -0.000001  -0.000000  -0.000002  -0.000000   4.119567
     7  C   -0.000004   0.000000  -0.000000  -0.000032   0.000000  -0.014156
     8  C    0.000000  -0.000000   0.000000   0.000000  -0.000000  -0.028172
     9  N    0.000000   0.000000  -0.000000   0.000000  -0.000000   0.267573
    10  H    0.000000   0.000000   0.000000  -0.000000   0.000000   0.000397
    11  H   -0.000000  -0.000000  -0.000000  -0.000000   0.000000   0.002211
    12  O    0.000000  -0.000000   0.000000  -0.000000  -0.000000   0.627408
    13  N    0.000006   0.000115  -0.000000   0.000196  -0.000000   0.268999
    14  C   -0.000076   0.000072   0.000001  -0.000696   0.000000  -0.023491
    15  N   -0.000082  -0.000463  -0.000024  -0.041923   0.000005   0.000830
    16  H   -0.010171   0.005305   0.002249   0.173034  -0.000132  -0.000017
    17  H    0.000044   0.000014   0.000001   0.001697  -0.000000  -0.000028
    18  H   -0.000000  -0.000000  -0.000000  -0.000000   0.000000  -0.011541
    19  S    0.001763   0.009714  -0.000337  -0.001112   0.012051  -0.000008
    20  C    0.000047   0.000105   0.000037  -0.000000  -0.000109  -0.000000
    21  H    0.000002  -0.000000   0.000000  -0.000000  -0.000014   0.000000
    22  H   -0.000001   0.000000  -0.000001  -0.000000   0.000006   0.000000
    23  H   -0.000001   0.000001   0.000003  -0.000000  -0.000003   0.000000
    24  C    0.000138  -0.009664   0.000075  -0.000005  -0.000385  -0.000001
    25  H   -0.000022   0.000115  -0.000003   0.000001   0.000022   0.000005
    26  H    0.000012   0.000088   0.000000  -0.000000  -0.000037  -0.000000
    27  H   -0.000415   0.012841   0.000059   0.000042   0.000032   0.000000
    28  C    0.000022  -0.010467  -0.000134   0.000813   0.000010  -0.034933
    29  H    0.000935   0.022467   0.000200  -0.002739  -0.000022   0.001727
    30  H   -0.000023  -0.000796  -0.000116   0.006078   0.000004   0.001230
    31  H    0.000105   0.000062  -0.000001   0.000123   0.000000  -0.002417
               7          8          9         10         11         12
     1  C   -0.000004   0.000000   0.000000   0.000000  -0.000000   0.000000
     2  O    0.000000  -0.000000   0.000000   0.000000  -0.000000  -0.000000
     3  O   -0.000000   0.000000  -0.000000   0.000000  -0.000000   0.000000
     4  O   -0.000032   0.000000   0.000000  -0.000000  -0.000000  -0.000000
     5  H    0.000000  -0.000000  -0.000000   0.000000   0.000000  -0.000000
     6  C   -0.014156  -0.028172   0.267573   0.000397   0.002211   0.627408
     7  C    5.135056   0.564146  -0.031539   0.369748  -0.025954   0.000562
     8  C    0.564146   4.783675   0.290063  -0.035066   0.369116   0.002297
     9  N   -0.031539   0.290063   7.122077   0.003430  -0.043540  -0.091587
    10  H    0.369748  -0.035066   0.003430   0.496444  -0.003367   0.000003
    11  H   -0.025954   0.369116  -0.043540  -0.003367   0.491302  -0.000096
    12  O    0.000562   0.002297  -0.091587   0.000003  -0.000096   8.047054
    13  N   -0.062653  -0.009655  -0.103766   0.003544  -0.000380  -0.089395
    14  C    0.442256  -0.024747  -0.016905  -0.026421   0.002643   0.000375
    15  N   -0.080701   0.007243   0.000172  -0.006065  -0.000125  -0.000058
    16  H    0.000693  -0.000023  -0.000000  -0.000008   0.000000  -0.000000
    17  H   -0.010560   0.001005   0.000016   0.004103  -0.000013   0.000001
    18  H    0.003136  -0.022616   0.303926  -0.000119  -0.004571   0.007066
    19  S    0.000000   0.000000  -0.000000  -0.000000   0.000000  -0.000003
    20  C    0.000000  -0.000000   0.000000  -0.000000   0.000000   0.000000
    21  H    0.000000  -0.000000   0.000000  -0.000000   0.000000   0.000000
    22  H   -0.000000   0.000000  -0.000000   0.000000  -0.000000  -0.000000
    23  H    0.000000  -0.000000   0.000000  -0.000000   0.000000   0.000000
    24  C    0.000000   0.000000  -0.000000   0.000000  -0.000000  -0.000001
    25  H   -0.000000   0.000000  -0.000000   0.000000  -0.000000   0.000001
    26  H   -0.000000   0.000000  -0.000000  -0.000000  -0.000000   0.000000
    27  H   -0.000000   0.000000  -0.000000   0.000000  -0.000000   0.000000
    28  C    0.005197  -0.000152   0.003135  -0.000105   0.000013  -0.010485
    29  H   -0.000061  -0.000001  -0.000049  -0.000001   0.000000   0.000378
    30  H   -0.000167   0.000007  -0.000077   0.000000  -0.000000   0.000418
    31  H   -0.000155  -0.000052   0.000882   0.000002   0.000000   0.016788
              13         14         15         16         17         18
     1  C    0.000006  -0.000076  -0.000082  -0.010171   0.000044  -0.000000
     2  O    0.000115   0.000072  -0.000463   0.005305   0.000014  -0.000000
     3  O   -0.000000   0.000001  -0.000024   0.002249   0.000001  -0.000000
     4  O    0.000196  -0.000696  -0.041923   0.173034   0.001697  -0.000000
     5  H   -0.000000   0.000000   0.000005  -0.000132  -0.000000   0.000000
     6  C    0.268999  -0.023491   0.000830  -0.000017  -0.000028  -0.011541
     7  C   -0.062653   0.442256  -0.080701   0.000693  -0.010560   0.003136
     8  C   -0.009655  -0.024747   0.007243  -0.000023   0.001005  -0.022616
     9  N   -0.103766  -0.016905   0.000172  -0.000000   0.000016   0.303926
    10  H    0.003544  -0.026421  -0.006065  -0.000008   0.004103  -0.000119
    11  H   -0.000380   0.002643  -0.000125   0.000000  -0.000013  -0.004571
    12  O   -0.089395   0.000375  -0.000058  -0.000000   0.000001   0.007066
    13  N    7.254347   0.280949  -0.084606  -0.002493   0.007405   0.005351
    14  C    0.280949   4.308643   0.526954   0.001447  -0.049935   0.000239
    15  N   -0.084606   0.526954   7.051963   0.087943   0.301691   0.000011
    16  H   -0.002493   0.001447   0.087943   0.247522  -0.005322  -0.000000
    17  H    0.007405  -0.049935   0.301691  -0.005322   0.422320  -0.000001
    18  H    0.005351   0.000239   0.000011  -0.000000  -0.000001   0.337434
    19  S    0.000294   0.000001   0.000001   0.000018  -0.000000  -0.000000
    20  C   -0.000000   0.000000  -0.000000  -0.000000  -0.000000  -0.000000
    21  H    0.000000  -0.000000   0.000000  -0.000000  -0.000000  -0.000000
    22  H   -0.000000   0.000000  -0.000000   0.000000   0.000000   0.000000
    23  H    0.000000   0.000000   0.000000  -0.000000  -0.000000   0.000000
    24  C   -0.000002  -0.000000   0.000000  -0.000003  -0.000000  -0.000000
    25  H   -0.000028  -0.000000   0.000000  -0.000000   0.000000   0.000000
    26  H    0.000000  -0.000000   0.000000  -0.000000   0.000000  -0.000000
    27  H   -0.000001  -0.000002  -0.000002  -0.000003   0.000000  -0.000000
    28  C    0.224945  -0.033673  -0.004758   0.001353  -0.000001  -0.000090
    29  H   -0.033264  -0.003720   0.001729   0.001003   0.000098   0.000002
    30  H   -0.037513  -0.004506   0.002744  -0.000848   0.000070   0.000002
    31  H   -0.032242   0.003848   0.000566   0.000058  -0.000005  -0.000021
              19         20         21         22         23         24
     1  C    0.001763   0.000047   0.000002  -0.000001  -0.000001   0.000138
     2  O    0.009714   0.000105  -0.000000   0.000000   0.000001  -0.009664
     3  O   -0.000337   0.000037   0.000000  -0.000001   0.000003   0.000075
     4  O   -0.001112  -0.000000  -0.000000  -0.000000  -0.000000  -0.000005
     5  H    0.012051  -0.000109  -0.000014   0.000006  -0.000003  -0.000385
     6  C   -0.000008  -0.000000   0.000000   0.000000   0.000000  -0.000001
     7  C    0.000000   0.000000   0.000000  -0.000000   0.000000   0.000000
     8  C    0.000000  -0.000000  -0.000000   0.000000  -0.000000   0.000000
     9  N   -0.000000   0.000000   0.000000  -0.000000   0.000000  -0.000000
    10  H   -0.000000  -0.000000  -0.000000   0.000000  -0.000000   0.000000
    11  H    0.000000   0.000000   0.000000  -0.000000   0.000000  -0.000000
    12  O   -0.000003   0.000000   0.000000  -0.000000   0.000000  -0.000001
    13  N    0.000294  -0.000000   0.000000  -0.000000   0.000000  -0.000002
    14  C    0.000001   0.000000  -0.000000   0.000000   0.000000  -0.000000
    15  N    0.000001  -0.000000   0.000000  -0.000000   0.000000   0.000000
    16  H    0.000018  -0.000000  -0.000000   0.000000  -0.000000  -0.000003
    17  H   -0.000000  -0.000000  -0.000000   0.000000  -0.000000  -0.000000
    18  H   -0.000000  -0.000000  -0.000000   0.000000   0.000000  -0.000000
    19  S   15.666849   0.233520  -0.044741  -0.042944  -0.034322   0.241086
    20  C    0.233520   5.365273   0.366696   0.367241   0.374304  -0.030383
    21  H   -0.044741   0.366696   0.540329  -0.036805  -0.023923  -0.004027
    22  H   -0.042944   0.367241  -0.036805   0.534917  -0.023507  -0.004055
    23  H   -0.034322   0.374304  -0.023923  -0.023507   0.496985   0.003079
    24  C    0.241086  -0.030383  -0.004027  -0.004055   0.003079   5.386054
    25  H   -0.046262  -0.003487  -0.001252   0.006137  -0.000026   0.364514
    26  H   -0.045242  -0.004306   0.006822  -0.001350  -0.000008   0.364981
    27  H   -0.034800   0.003095  -0.000014  -0.000035  -0.000065   0.367127
    28  C    0.000490  -0.000052   0.000001  -0.000007   0.000001  -0.000350
    29  H   -0.001475   0.000008  -0.000000   0.000002  -0.000000   0.000118
    30  H    0.000513  -0.000011   0.000000  -0.000001  -0.000001   0.000022
    31  H    0.000586  -0.000022  -0.000000   0.000026  -0.000001   0.000006
              25         26         27         28         29         30
     1  C   -0.000022   0.000012  -0.000415   0.000022   0.000935  -0.000023
     2  O    0.000115   0.000088   0.012841  -0.010467   0.022467  -0.000796
     3  O   -0.000003   0.000000   0.000059  -0.000134   0.000200  -0.000116
     4  O    0.000001  -0.000000   0.000042   0.000813  -0.002739   0.006078
     5  H    0.000022  -0.000037   0.000032   0.000010  -0.000022   0.000004
     6  C    0.000005  -0.000000   0.000000  -0.034933   0.001727   0.001230
     7  C   -0.000000  -0.000000  -0.000000   0.005197  -0.000061  -0.000167
     8  C    0.000000   0.000000   0.000000  -0.000152  -0.000001   0.000007
     9  N   -0.000000  -0.000000  -0.000000   0.003135  -0.000049  -0.000077
    10  H    0.000000  -0.000000   0.000000  -0.000105  -0.000001   0.000000
    11  H   -0.000000  -0.000000  -0.000000   0.000013   0.000000  -0.000000
    12  O    0.000001   0.000000   0.000000  -0.010485   0.000378   0.000418
    13  N   -0.000028   0.000000  -0.000001   0.224945  -0.033264  -0.037513
    14  C   -0.000000  -0.000000  -0.000002  -0.033673  -0.003720  -0.004506
    15  N    0.000000   0.000000  -0.000002  -0.004758   0.001729   0.002744
    16  H   -0.000000  -0.000000  -0.000003   0.001353   0.001003  -0.000848
    17  H    0.000000   0.000000   0.000000  -0.000001   0.000098   0.000070
    18  H    0.000000  -0.000000  -0.000000  -0.000090   0.000002   0.000002
    19  S   -0.046262  -0.045242  -0.034800   0.000490  -0.001475   0.000513
    20  C   -0.003487  -0.004306   0.003095  -0.000052   0.000008  -0.000011
    21  H   -0.001252   0.006822  -0.000014   0.000001  -0.000000   0.000000
    22  H    0.006137  -0.001350  -0.000035  -0.000007   0.000002  -0.000001
    23  H   -0.000026  -0.000008  -0.000065   0.000001  -0.000000  -0.000001
    24  C    0.364514   0.364981   0.367127  -0.000350   0.000118   0.000022
    25  H    0.541744  -0.036675  -0.020603   0.000310  -0.000012  -0.000007
    26  H   -0.036675   0.543538  -0.019879   0.000033   0.000023  -0.000001
    27  H   -0.020603  -0.019879   0.443334  -0.000276   0.001032  -0.000004
    28  C    0.000310   0.000033  -0.000276   5.170223   0.365328   0.378724
    29  H   -0.000012   0.000023   0.001032   0.365328   0.453455  -0.030435
    30  H   -0.000007  -0.000001  -0.000004   0.378724  -0.030435   0.493633
    31  H    0.000606   0.000004  -0.000052   0.367512  -0.018720  -0.020898
              31
     1  C    0.000105
     2  O    0.000062
     3  O   -0.000001
     4  O    0.000123
     5  H    0.000000
     6  C   -0.002417
     7  C   -0.000155
     8  C   -0.000052
     9  N    0.000882
    10  H    0.000002
    11  H    0.000000
    12  O    0.016788
    13  N   -0.032242
    14  C    0.003848
    15  N    0.000566
    16  H    0.000058
    17  H   -0.000005
    18  H   -0.000021
    19  S    0.000586
    20  C   -0.000022
    21  H   -0.000000
    22  H    0.000026
    23  H   -0.000001
    24  C    0.000006
    25  H    0.000606
    26  H    0.000004
    27  H   -0.000052
    28  C    0.367512
    29  H   -0.018720
    30  H   -0.020898
    31  H    0.453092
 Mulliken charges:
               1
     1  C    0.733925
     2  O   -0.517568
     3  O   -0.577299
     4  O   -0.612240
     5  H    0.441378
     6  C    0.824819
     7  C   -0.294814
     8  C    0.102931
     9  N   -0.703811
    10  H    0.193481
    11  H    0.212762
    12  O   -0.510728
    13  N   -0.590151
    14  C    0.616745
    15  N   -0.763044
    16  H    0.498397
    17  H    0.327399
    18  H    0.381792
    19  S    0.084363
    20  C   -0.671957
    21  H    0.196927
    22  H    0.200377
    23  H    0.207482
    24  C   -0.678324
    25  H    0.194923
    26  H    0.191996
    27  H    0.248589
    28  C   -0.422628
    29  H    0.241996
    30  H    0.211959
    31  H    0.230320
 Sum of Mulliken charges =  -0.00000
 Mulliken charges with hydrogens summed into heavy atoms:
               1
     1  C    0.733925
     2  O   -0.517568
     3  O   -0.135921
     4  O   -0.113843
     6  C    0.824819
     7  C   -0.101332
     8  C    0.315693
     9  N   -0.322019
    12  O   -0.510728
    13  N   -0.590151
    14  C    0.616745
    15  N   -0.435644
    19  S    0.084363
    20  C   -0.067170
    24  C   -0.042816
    28  C    0.261646
 Electronic spatial extent (au):  <R**2>=           5601.6126
 Charge=             -0.0000 electrons
 Dipole moment (field-independent basis, Debye):
    X=              5.9326    Y=              0.7478    Z=              1.8091  Tot=              6.2472
 Quadrupole moment (field-independent basis, Debye-Ang):
   XX=            -66.0934   YY=           -100.0387   ZZ=           -104.7704
   XY=            -15.7183   XZ=              3.5455   YZ=             -2.6755
 Traceless Quadrupole moment (field-independent basis, Debye-Ang):
   XX=             24.2074   YY=             -9.7378   ZZ=            -14.4695
   XY=            -15.7183   XZ=              3.5455   YZ=             -2.6755
 Octapole moment (field-independent basis, Debye-Ang**2):
  XXX=            131.7210  YYY=            -34.5930  ZZZ=              2.0884  XYY=             -5.2423
  XXY=              6.8059  XXZ=             31.3222  XZZ=             -8.1339  YZZ=              6.5576
  YYZ=             17.1117  XYZ=              6.6199
 Hexadecapole moment (field-independent basis, Debye-Ang**3):
 XXXX=          -3801.6818 YYYY=          -1816.6842 ZZZZ=           -358.3597 XXXY=            292.0885
 XXXZ=            -37.8538 YYYX=            133.0598 YYYZ=            -30.3207 ZZZX=           -170.0837
 ZZZY=              3.5305 XXYY=          -1039.1274 XXZZ=           -897.6265 YYZZ=           -384.8503
 XXYZ=            -30.0127 YYXZ=            -42.3891 ZZXY=             74.9136
 N-N= 1.256935405724D+03 E-N=-5.279583653230D+03  KE= 1.168705603167D+03
 R6APFD:  NTU= -4 IXU= 1 FactS= 1.050
 Calling FoFJK, ICntrl=      2127 FMM=F ISym2X=0 I1Cent= 0 IOpClX= 0 NMat=1 NMatS=1 NMatT=0.
 -------------------------------------------------------------------
 Center     Atomic                   Forces (Hartrees/Bohr)
 Number     Number              X              Y              Z
 -------------------------------------------------------------------
      1        6           0.000244497   -0.001486105   -0.001505287
      2        8           0.001171837    0.003085718    0.007482985
      3        8          -0.005052630   -0.000525727   -0.002866031
      4        8           0.002223575   -0.002599850   -0.003170541
      5        1           0.001084174   -0.000427626   -0.000161253
      6        6           0.000317108   -0.005119996    0.000729321
      7        6          -0.006450998   -0.000695567   -0.001179012
      8        6           0.002079960    0.004860925   -0.000280606
      9        7           0.001438520   -0.002798027    0.000711364
     10        1           0.000515169   -0.001014084    0.000251032
     11        1           0.000931805    0.000060647    0.000166820
     12        8          -0.001615310    0.007673225   -0.001327103
     13        7          -0.002708918   -0.001192142   -0.000018425
     14        6           0.005400831    0.002576285    0.000761107
     15        7          -0.003381888   -0.004290786   -0.000411393
     16        1           0.001554731    0.000031997    0.000822823
     17        1          -0.000443200    0.000585586   -0.000161374
     18        1          -0.000199333   -0.000647015    0.000047212
     19       16          -0.000243669    0.001074286    0.000190239
     20        6           0.000295778   -0.001948086   -0.000054954
     21        1          -0.001149690    0.001159033    0.000362792
     22        1           0.000648572    0.001490785   -0.000300071
     23        1          -0.000404099    0.000090278   -0.001026504
     24        6          -0.000232557   -0.001460436   -0.001136483
     25        1           0.001019476    0.000745939    0.000616008
     26        1          -0.000622844    0.000612853    0.001307382
     27        1           0.000090187   -0.000052572    0.000135317
     28        6           0.003240015   -0.000972896    0.000418510
     29        1           0.000293301    0.000457626   -0.000685511
     30        1           0.000149110    0.000634645    0.000267657
     31        1          -0.000193512    0.000091088    0.000013978
 -------------------------------------------------------------------
 Cartesian Forces:  Max     0.007673225 RMS     0.002112228

 GradGradGradGradGradGradGradGradGradGradGradGradGradGradGradGradGradGrad
 Berny optimization.
 FormGI is forming the generalized inverse of G from B-inverse, IUseBI=4.
 Internal  Forces:  Max     0.008747366 RMS     0.001709119
 Search for a local minimum.
 Step number   1 out of a maximum of  143
 All quantities printed in internal units (Hartrees-Bohrs-Radians)
 Mixed Optimization -- RFO/linear search
 Second derivative matrix not updated -- first step.
 ITU=  0
     Eigenvalues ---    0.00230   0.00230   0.00230   0.00230   0.00230
     Eigenvalues ---    0.00230   0.00827   0.01210   0.01499   0.01824
     Eigenvalues ---    0.01846   0.01985   0.02053   0.02105   0.02286
     Eigenvalues ---    0.02337   0.02385   0.02501   0.02505   0.02563
     Eigenvalues ---    0.02944   0.03241   0.04103   0.07379   0.07599
     Eigenvalues ---    0.07698   0.08084   0.08694   0.09634   0.10064
     Eigenvalues ---    0.10996   0.11275   0.14030   0.15881   0.15999
     Eigenvalues ---    0.16000   0.16000   0.16000   0.16000   0.16000
     Eigenvalues ---    0.16000   0.16000   0.16000   0.16000   0.16000
     Eigenvalues ---    0.16000   0.16000   0.22077   0.23362   0.23868
     Eigenvalues ---    0.24921   0.24995   0.24998   0.25000   0.25000
     Eigenvalues ---    0.25000   0.25000   0.25153   0.25276   0.34414
     Eigenvalues ---    0.34448   0.34455   0.34468   0.34468   0.34563
     Eigenvalues ---    0.34636   0.34721   0.35205   0.35551   0.35806
     Eigenvalues ---    0.36290   0.36332   0.43799   0.44690   0.45503
     Eigenvalues ---    0.45940   0.46140   0.47262   0.50258   0.52943
     Eigenvalues ---    0.55424   0.57534   0.63738   0.71022   0.96281
     Eigenvalues ---    0.988891000.000001000.000001000.000001000.00000
     Eigenvalues --- 1000.000001000.000001000.000001000.000001000.00000
     Eigenvalues --- 1000.000001000.000001000.000001000.000001000.00000
     Eigenvalues --- 1000.000001000.000001000.000001000.000001000.00000
     Eigenvalues --- 1000.000001000.000001000.000001000.000001000.00000
     Eigenvalues --- 1000.000001000.000001000.000001000.000001000.00000
     Eigenvalues --- 1000.000001000.000001000.000001000.000001000.00000
     Eigenvalues --- 1000.000001000.000001000.000001000.000001000.00000
     Eigenvalues --- 1000.000001000.000001000.000001000.000001000.00000
     Eigenvalues --- 1000.000001000.000001000.00000
 RFO step:  Lambda=-1.60782984D-03 EMin= 2.30000000D-03
 Linear search not attempted -- first point.
 Iteration  1 RMS(Cart)=  0.36100792 RMS(Int)=  0.01605302
 Iteration  2 RMS(Cart)=  0.19178870 RMS(Int)=  0.00678989
 Iteration  3 RMS(Cart)=  0.06102754 RMS(Int)=  0.00619214
 Iteration  4 RMS(Cart)=  0.03471882 RMS(Int)=  0.00613162
 Iteration  5 RMS(Cart)=  0.02256094 RMS(Int)=  0.00610829
 Iteration  6 RMS(Cart)=  0.01429255 RMS(Int)=  0.00610029
 Iteration  7 RMS(Cart)=  0.00932209 RMS(Int)=  0.00609679
 Iteration  8 RMS(Cart)=  0.00599107 RMS(Int)=  0.00609541
 Iteration  9 RMS(Cart)=  0.00389080 RMS(Int)=  0.00609482
 Iteration 10 RMS(Cart)=  0.00251289 RMS(Int)=  0.00609458
 Iteration 11 RMS(Cart)=  0.00162959 RMS(Int)=  0.00609447
 Iteration 12 RMS(Cart)=  0.00105456 RMS(Int)=  0.00609443
 Iteration 13 RMS(Cart)=  0.00068357 RMS(Int)=  0.00609441
 Iteration 14 RMS(Cart)=  0.00044272 RMS(Int)=  0.00609441
 Iteration 15 RMS(Cart)=  0.00028692 RMS(Int)=  0.00609440
 Iteration 16 RMS(Cart)=  0.00018589 RMS(Int)=  0.00609440
 Iteration 17 RMS(Cart)=  0.00012047 RMS(Int)=  0.00609440
 Iteration 18 RMS(Cart)=  0.00007806 RMS(Int)=  0.00609440
 Iteration 19 RMS(Cart)=  0.00005059 RMS(Int)=  0.00609440
 Iteration 20 RMS(Cart)=  0.00003278 RMS(Int)=  0.00609440
 Iteration 21 RMS(Cart)=  0.00002124 RMS(Int)=  0.00609440
 Iteration 22 RMS(Cart)=  0.00001377 RMS(Int)=  0.00609440
 Iteration 23 RMS(Cart)=  0.00000892 RMS(Int)=  0.00609440
 Iteration 24 RMS(Cart)=  0.00000578 RMS(Int)=  0.00609440
 Iteration 25 RMS(Cart)=  0.00000375 RMS(Int)=  0.00609440
 Iteration 26 RMS(Cart)=  0.00000243 RMS(Int)=  0.00609440
 Iteration 27 RMS(Cart)=  0.00000157 RMS(Int)=  0.00609440
 Iteration 28 RMS(Cart)=  0.00000102 RMS(Int)=  0.00609440
 Iteration 29 RMS(Cart)=  0.00000066 RMS(Int)=  0.00609440
 Iteration  1 RMS(Cart)=  0.02140610 RMS(Int)=  0.00180599
 Iteration  2 RMS(Cart)=  0.00634662 RMS(Int)=  0.00198704
 Iteration  3 RMS(Cart)=  0.00190792 RMS(Int)=  0.00210362
 Iteration  4 RMS(Cart)=  0.00057587 RMS(Int)=  0.00214335
 Iteration  5 RMS(Cart)=  0.00017403 RMS(Int)=  0.00215574
 Iteration  6 RMS(Cart)=  0.00005261 RMS(Int)=  0.00215952
 Iteration  7 RMS(Cart)=  0.00001591 RMS(Int)=  0.00216067
 Iteration  8 RMS(Cart)=  0.00000481 RMS(Int)=  0.00216101
 Iteration  9 RMS(Cart)=  0.00000145 RMS(Int)=  0.00216112
 Iteration 10 RMS(Cart)=  0.00000044 RMS(Int)=  0.00216115
 Variable       Old X    -DE/DX   Delta X   Delta X   Delta X     New X
                                 (Linear)    (Quad)   (Total)
    R1        2.29984   0.00875   0.00000   0.00913   0.00724   2.30708
    R2        2.52947   0.00497   0.00000   0.00861   0.00862   2.53810
    R3        2.48026   0.00483   0.00000   0.00765   0.00646   2.48672
    R4        4.47145   0.00154   0.00000   0.06055   0.06205   4.53351
    R5        1.83707  -0.00101   0.00000  -0.00190  -0.00189   1.83518
    R6        1.90603   0.00099   0.00000   0.00202   0.00221   1.90824
    R7        2.62561   0.00123   0.00000   0.00262   0.00496   2.63058
    R8        2.29087   0.00795   0.00000   0.00803   0.00820   2.29907
    R9        2.62176   0.00119   0.00000   0.00249   0.00058   2.62234
   R10        2.53517   0.00379   0.00000   0.00665   0.00876   2.54392
   R11        2.04387   0.00114   0.00000   0.00318   0.00332   2.04718
   R12        2.75249  -0.00282   0.00000  -0.00755  -0.00930   2.74319
   R13        2.58579  -0.00270   0.00000  -0.00523  -0.00115   2.58464
   R14        2.04789   0.00093   0.00000   0.00260   0.00275   2.05064
   R15        1.90899  -0.00062   0.00000  -0.00134  -0.00127   1.90771
   R16        2.63544   0.00075   0.00000   0.00158  -0.00609   2.62936
   R17        2.76921  -0.00332   0.00000  -0.00904  -0.01010   2.75911
   R18        2.43140   0.00504   0.00000   0.00704   0.00495   2.43635
   R19        3.21486  -0.00074   0.00000  -0.01027  -0.00868   3.20618
   R20        1.92338  -0.00072   0.00000  -0.00162  -0.00157   1.92180
   R21        3.42521   0.00123   0.00000   0.00484   0.00475   3.42996
   R22        3.42173   0.00072   0.00000   0.00242   0.00476   3.42650
   R23        2.06568   0.00146   0.00000   0.00421   0.00424   2.06992
   R24        2.06547   0.00148   0.00000   0.00426   0.00406   2.06953
   R25        2.06270   0.00109   0.00000   0.00313   0.00321   2.06591
   R26        2.06637   0.00123   0.00000   0.00357   0.00363   2.06999
   R27        2.06580   0.00139   0.00000   0.00403   0.00406   2.06986
   R28        2.06116   0.00177   0.00000   0.00499   0.00912   2.07027
   R29        2.06391  -0.00083   0.00000  -0.00239  -0.00207   2.06183
   R30        2.06547  -0.00055   0.00000  -0.00159  -0.00158   2.06389
   R31        2.05343   0.00010   0.00000   0.00029   0.00054   2.05396
    A1        2.15155   0.00030   0.00000   0.00162  -0.00068   2.15086
    A2        2.20599   0.00091   0.00000   0.00284   0.00740   2.21339
    A3        1.92563  -0.00121   0.00000  -0.00441  -0.00671   1.91893
    A4        2.42363   0.00223   0.00000   0.01746   0.00744   2.43107
    A5        1.84348  -0.00112   0.00000  -0.00691  -0.00691   1.83657
    A6        1.90984   0.00119   0.00000   0.00453   0.01877   1.92861
    A7        2.10947   0.00006   0.00000   0.00027   0.00275   2.11222
    A8        2.00314  -0.00065   0.00000  -0.00266  -0.00756   1.99558
    A9        2.17057   0.00059   0.00000   0.00240   0.00481   2.17539
   A10        2.11815  -0.00064   0.00000  -0.00314  -0.00072   2.11743
   A11        2.08947   0.00083   0.00000   0.00353  -0.00141   2.08805
   A12        2.07555  -0.00019   0.00000  -0.00037   0.00213   2.07768
   A13        2.10785  -0.00053   0.00000  -0.00249  -0.00174   2.10612
   A14        2.15106   0.00046   0.00000   0.00246   0.00206   2.15311
   A15        2.02427   0.00007   0.00000   0.00003  -0.00032   2.02395
   A16        2.16300   0.00043   0.00000   0.00189   0.00262   2.16562
   A17        1.99285   0.00005   0.00000   0.00070   0.00033   1.99318
   A18        2.12726  -0.00048   0.00000  -0.00256  -0.00294   2.12431
   A19        2.17579   0.00050   0.00000   0.00202   0.00639   2.18218
   A20        2.04997  -0.00203   0.00000  -0.00770   0.01223   2.06220
   A21        2.05723   0.00153   0.00000   0.00582  -0.01861   2.03862
   A22        2.02697  -0.00057   0.00000  -0.00220   0.00172   2.02869
   A23        2.18336  -0.00175   0.00000  -0.00652   0.01401   2.19737
   A24        2.07286   0.00232   0.00000   0.00872  -0.01573   2.05712
   A25        2.39319   0.00169   0.00000   0.00962  -0.01448   2.37870
   A26        1.92881  -0.00062   0.00000  -0.00327   0.01117   1.93998
   A27        1.95220  -0.00101   0.00000  -0.00512   0.00415   1.95635
   A28        1.72478   0.00382   0.00000   0.01513   0.01318   1.73796
   A29        1.93832   0.00104   0.00000   0.00675   0.00655   1.94487
   A30        1.93454   0.00089   0.00000   0.00576   0.00566   1.94020
   A31        1.87893  -0.00013   0.00000  -0.00137  -0.00116   1.87777
   A32        1.91135  -0.00072   0.00000  -0.00348  -0.00375   1.90760
   A33        1.90079  -0.00056   0.00000  -0.00388  -0.00388   1.89691
   A34        1.89896  -0.00056   0.00000  -0.00412  -0.00379   1.89517
   A35        1.93425  -0.00007   0.00000   0.00205  -0.00344   1.93081
   A36        1.93319  -0.00026   0.00000  -0.00017   0.00005   1.93325
   A37        1.85301   0.00314   0.00000   0.02250   0.03308   1.88610
   A38        1.91385  -0.00027   0.00000  -0.00744  -0.00730   1.90655
   A39        1.91692  -0.00127   0.00000  -0.00796  -0.01093   1.90600
   A40        1.91174  -0.00123   0.00000  -0.00843  -0.01110   1.90064
   A41        2.23848   0.00611   0.00000   0.02514   0.03590   2.27438
   A42        2.92578  -0.00109   0.00000   0.00000  -0.00000   2.92578
   A43        1.90981   0.00037   0.00000   0.00280   0.00282   1.91263
   A44        1.91615   0.00014   0.00000   0.00103   0.00101   1.91716
   A45        1.88465   0.00008   0.00000  -0.00011  -0.00005   1.88460
   A46        1.89654  -0.00002   0.00000   0.00113   0.00110   1.89764
   A47        1.93716  -0.00027   0.00000  -0.00198  -0.00192   1.93524
   A48        1.91954  -0.00030   0.00000  -0.00283  -0.00294   1.91661
   A49        3.23259   0.00159   0.00000   0.25480   0.25733   3.48992
   A50        3.29520   0.00002   0.00000  -0.07526  -0.05504   3.24016
    D1       -1.11139   0.00019   0.00000   0.00203  -0.00282  -1.11421
    D2        2.02490   0.00049   0.00000   0.01635   0.00258   2.02748
    D3        0.13717   0.00017   0.00000   0.00749   0.00365   0.14082
    D4       -2.99988  -0.00010   0.00000  -0.00481  -0.00098  -3.00085
    D5       -0.06925   0.00021   0.00000  -0.00147   0.00472  -0.06454
    D6        3.06761   0.00049   0.00000   0.01131   0.00953   3.07714
    D7        0.06156   0.00050   0.00000   0.15543   0.13937   0.20093
    D8       -1.32304  -0.00028   0.00000  -0.11085  -0.10376  -1.42681
    D9        2.07337   0.00001   0.00000  -0.11326  -0.08431   1.98906
   D10        3.12739   0.00002   0.00000   0.00457   0.00063   3.12802
   D11       -0.00079   0.00001   0.00000   0.00219   0.00015  -0.00065
   D12       -0.01240  -0.00000   0.00000   0.00114  -0.00010  -0.01250
   D13       -3.14059  -0.00001   0.00000  -0.00123  -0.00057  -3.14116
   D14       -0.00046   0.00005   0.00000   0.00363   0.00183   0.00137
   D15        3.11929   0.00006   0.00000   0.01177   0.00217   3.12146
   D16       -3.14018   0.00002   0.00000   0.00007   0.00108  -3.13910
   D17       -0.02043   0.00004   0.00000   0.00821   0.00142  -0.01902
   D18        3.13841   0.00006   0.00000   0.00228   0.00108   3.13950
   D19       -0.00159   0.00003   0.00000   0.00156   0.00061  -0.00098
   D20        0.00430   0.00002   0.00000  -0.00088   0.00030   0.00460
   D21       -3.13571  -0.00000   0.00000  -0.00159  -0.00017  -3.13588
   D22       -0.01559   0.00002   0.00000   0.00510   0.00126  -0.01433
   D23        3.12608   0.00011   0.00000   0.00831   0.00531   3.13139
   D24        3.13330  -0.00001   0.00000   0.00204   0.00050   3.13380
   D25       -0.00822   0.00008   0.00000   0.00525   0.00456  -0.00366
   D26        0.01058  -0.00002   0.00000  -0.00241  -0.00090   0.00968
   D27        3.13777  -0.00001   0.00000   0.00018  -0.00036   3.13741
   D28       -3.13249  -0.00000   0.00000  -0.00174  -0.00047  -3.13296
   D29       -0.00530   0.00001   0.00000   0.00084   0.00008  -0.00522
   D30        0.01379  -0.00006   0.00000  -0.00667  -0.00238   0.01142
   D31       -3.12786  -0.00014   0.00000  -0.00966  -0.00609  -3.13396
   D32       -3.10587  -0.00004   0.00000  -0.01469  -0.00306  -3.10893
   D33        0.03566  -0.00012   0.00000  -0.01768  -0.00678   0.02888
   D34       -2.15157  -0.00000   0.00000  -0.01425  -0.01084  -2.16241
   D35        2.05162  -0.00029   0.00000  -0.01795  -0.01453   2.03709
   D36       -0.04116  -0.00007   0.00000  -0.01506  -0.01153  -0.05269
   D37        0.96970   0.00000   0.00000  -0.00670  -0.01024   0.95946
   D38       -1.11030  -0.00029   0.00000  -0.01041  -0.01394  -1.12424
   D39        3.08011  -0.00006   0.00000  -0.00752  -0.01094   3.06918
   D40       -2.96985  -0.00026   0.00000  -0.01644  -0.00212  -2.97196
   D41        0.00987   0.00003   0.00000  -0.00627   0.00662   0.01649
   D42        0.17182  -0.00017   0.00000  -0.01316   0.00200   0.17382
   D43       -3.13165   0.00012   0.00000  -0.00299   0.01074  -3.12091
   D44       -1.06778  -0.00016   0.00000   0.00425   0.00399  -1.06379
   D45        1.06108   0.00025   0.00000   0.00844   0.00771   1.06879
   D46        3.13604  -0.00000   0.00000   0.00591   0.00564  -3.14150
   D47       -1.11616   0.00032   0.00000   0.00944   0.00985  -1.10631
   D48        1.01215  -0.00024   0.00000   0.00129  -0.00169   1.01046
   D49        3.08619   0.00000   0.00000   0.00443   0.00492   3.09112
   D50        0.08436   0.00029   0.00000   0.06231   0.05586   0.14022
   D51       -2.00779  -0.00077   0.00000   0.05107   0.04666  -1.96113
   D52        2.17246   0.00112   0.00000   0.07050   0.06895   2.24141
         Item               Value     Threshold  Converged?
 Maximum Force            0.008710     0.000015     NO 
 RMS     Force            0.001712     0.000010     NO 
 Maximum Displacement     2.054709     0.000060     NO 
 RMS     Displacement     0.488819     0.000040     NO 
 Predicted change in Energy=-5.047741D-04
 GradGradGradGradGradGradGradGradGradGradGradGradGradGradGradGradGradGrad

                          Input orientation:                          
 ---------------------------------------------------------------------
 Center     Atomic      Atomic             Coordinates (Angstroms)
 Number     Number       Type             X           Y           Z
 ---------------------------------------------------------------------
      1          6           0       -2.012310   -1.578934   -0.197128
      2          8           0       -1.922470   -0.946355    0.843190
      3          8           0       -3.179271   -1.806307   -0.821969
      4          8           0       -1.026862   -2.132077   -0.871335
      5          1           0       -3.832253   -1.266649   -0.347114
      6          6           0        3.384875    0.929422    0.033139
      7          6           0        3.852126   -1.828278    0.492785
      8          6           0        4.861908   -0.939824    0.549433
      9          7           0        4.635065    0.389662    0.322038
     10          1           0        4.020234   -2.883841    0.669183
     11          1           0        5.887703   -1.215592    0.771364
     12          8           0        3.244123    2.124509   -0.146055
     13          7           0        2.358851   -0.003099   -0.024715
     14          6           0        2.510087   -1.370784    0.181549
     15          7           0        1.461116   -2.114222    0.085911
     16          1           0       -0.139060   -1.915336   -0.441781
     17          1           0        1.683491   -3.088594    0.274015
     18          1           0        5.379835    1.069871    0.364005
     19         16           0       -3.621348    1.528910   -0.324422
     20          6           0       -4.459844    3.053218   -0.841952
     21          1           0       -5.183008    3.387277   -0.090126
     22          1           0       -3.739350    3.855611   -1.032736
     23          1           0       -4.994662    2.837083   -1.770611
     24          6           0       -2.826359    2.122296    1.193363
     25          1           0       -2.098184    2.908301    0.965674
     26          1           0       -3.571404    2.512796    1.894897
     27          1           0       -2.309465    1.276158    1.659285
     28          6           0        1.006837    0.476152   -0.297002
     29          1           0        0.336979    0.154628    0.501972
     30          1           0        0.649758    0.061372   -1.242134
     31          1           0        1.041706    1.560653   -0.360385
 ---------------------------------------------------------------------
                    Distance matrix (angstroms):
                    1          2          3          4          5
     1  C    0.000000
     2  O    1.220856   0.000000
     3  O    1.343102   2.256507   0.000000
     4  O    1.315913   2.268842   2.177481   0.000000
     5  H    1.852623   2.273035   0.971135   2.982279   0.000000
     6  C    5.956045   5.687058   7.162642   5.445574   7.553427
     7  C    5.910140   5.852053   7.153293   5.075199   7.750519
     8  C    6.944111   6.790737   8.203176   6.173950   8.746373
     9  N    6.952157   6.712510   8.197248   6.311951   8.653705
    10  H    6.232564   6.252988   7.430846   5.330246   8.081443
    11  H    7.967445   7.815142   9.224839   7.165864   9.784229
    12  O    6.430255   6.091182   7.560964   6.073374   7.849553
    13  N    4.649734   4.469082   5.878603   4.088077   6.326948
    14  C    4.542994   4.501718   5.793576   3.768042   6.365187
    15  N    3.525809   3.658693   4.738380   2.665835   5.378257
    16  H    1.918876   2.402212   3.065829   1.009795   3.750924
    17  H    4.019950   4.232742   5.147028   3.093989   5.841979
    18  H    7.872410   7.590681   9.106988   7.268033   9.530351
    19  S    3.501985   3.221248   3.400979   4.520320   2.803595
    20  C    5.278547   5.027381   5.025461   6.218803   4.393175
    21  H    5.893049   5.502959   5.614613   6.953208   4.852794
    22  H    5.763261   5.466171   5.693455   6.575412   5.168777
    23  H    5.556211   5.530346   5.075100   6.422202   4.496460
    24  C    4.036736   3.218113   4.429450   5.059728   3.856143
    25  H    4.636244   3.860602   5.156738   5.470625   4.707507
    26  H    4.852792   3.973763   5.117595   5.975079   4.402143
    27  H    3.418497   2.399029   4.051516   4.434543   3.579161
    28  C    3.653573   3.450276   4.796740   3.356881   5.143604
    29  H    3.002188   2.536474   4.238172   2.995840   4.485919
    30  H    3.296853   3.461278   4.280914   2.785635   4.759529
    31  H    4.382997   4.064482   5.419052   4.263367   5.634651
                    6          7          8          9         10
     6  C    0.000000
     7  C    2.834520   0.000000
     8  C    2.437675   1.346187   0.000000
     9  N    1.392041   2.358263   1.367734   0.000000
    10  H    3.917806   1.083323   2.121782   3.348783   0.000000
    11  H    3.377899   2.143959   1.085153   2.085146   2.506179
    12  O    1.216617   4.049977   3.534270   2.272339   5.133277
    13  N    1.387684   2.414323   2.733568   2.335733   3.397111
    14  C    2.465406   1.451633   2.419117   2.763049   2.192640
    15  N    3.601028   2.442179   3.627595   4.049585   2.735252
    16  H    4.553715   4.100069   5.190743   5.356184   4.412706
    17  H    4.370032   2.517784   3.846479   4.562056   2.378749
    18  H    2.027082   3.278681   2.083628   1.009519   4.192075
    19  S    7.040909   8.233550   8.878282   8.359674   8.879943
    20  C    8.174101   9.731361  10.235985   9.548130  10.461545
    21  H    8.914307  10.448706  10.955965  10.273759  11.162577
    22  H    7.775169   9.605431   9.974020   9.164008  10.417671
    23  H    8.781192  10.254473  10.807386  10.153851  10.952165
    24  C    6.430280   7.791021   8.300642   7.709350   8.497764
    25  H    5.903348   7.620039   7.963931   7.217648   8.430412
    26  H    7.373129   8.713187   9.211492   8.621352   9.394627
    27  H    5.932123   6.997389   7.587551   7.127454   7.638781
    28  C    2.443259   3.745642   4.193210   3.681675   4.615586
    29  H    3.179588   4.035872   4.655648   4.308266   4.777721
    30  H    3.140176   4.103156   4.685543   4.293842   4.866983
    31  H    2.458406   4.484553   4.655545   3.840463   5.448410
                   11         12         13         14         15
    11  H    0.000000
    12  O    4.357344   0.000000
    13  N    3.815321   2.307628   0.000000
    14  C    3.432237   3.586532   1.391395   0.000000
    15  N    4.568594   4.604320   2.296738   1.289258   0.000000
    16  H    6.187345   5.277664   3.173351   2.775439   1.696637
    17  H    4.629350   5.457882   3.172638   1.908581   1.016974
    18  H    2.376387   2.435916   3.229352   3.771676   5.056891
    19  S    9.957664   6.893565   6.180587   6.801376   6.266755
    20  C   11.309167   7.790885   7.516885   8.318611   7.913352
    21  H   12.020366   8.521400   8.269133   9.049678   8.627970
    22  H   11.029597   7.249263   7.286549   8.236817   7.995944
    23  H   11.887459   8.427605   8.073967   8.822604   8.345008
    24  C    9.341009   6.216494   5.734755   6.457788   6.128374
    25  H    8.989918   5.512759   5.415005   6.337316   6.218386
    26  H   10.229267   7.125143   6.721797   7.416352   7.071632
    27  H    8.613407   5.900957   5.124990   5.693688   5.309187
    28  C    5.275060   2.783041   1.460056   2.428980   2.657636
    29  H    5.723688   3.570974   2.095290   2.674313   2.566022
    30  H    5.755074   3.491226   2.099349   2.745682   2.674923
    31  H    5.698428   2.283531   2.071923   3.323125   3.725559
                   16         17         18         19         20
    16  H    0.000000
    17  H    2.282672   0.000000
    18  H    6.326054   5.564521   0.000000
    19  S    4.899278   7.058384   9.039134   0.000000
    20  C    6.596654   8.758300  10.109762   1.815056   0.000000
    21  H    7.326853   9.445545  10.823597   2.438689   1.095355
    22  H    6.827528   8.907120   9.636948   2.434989   1.095146
    23  H    6.923015   9.159251  10.738241   2.385115   1.093230
    24  C    5.118372   6.952505   8.314869   1.813224   2.770812
    25  H    5.393196   7.123356   7.724157   2.426334   2.977575
    26  H    6.070370   7.849634   9.195126   2.428148   2.927751
    27  H    4.394402   6.075668   7.800362   2.391655   3.746766
    28  C    2.655797   3.673056   4.462348   4.746487   6.068183
    29  H    2.324228   3.519027   5.127095   4.270823   5.763460
    30  H    2.273802   3.645491   5.096115   4.608492   5.934587
    31  H    3.671966   4.736017   4.425492   4.663300   5.720726
                   21         22         23         24         25
    21  H    0.000000
    22  H    1.786617   0.000000
    23  H    1.778262   1.776982   0.000000
    24  C    2.966701   2.965375   3.741337   0.000000
    25  H    3.295493   2.753991   3.985212   1.095393   0.000000
    26  H    2.702277   3.225275   3.945475   1.095323   1.786129
    27  H    3.971714   3.993135   4.627197   1.095541   1.785952
    28  C    6.843364   5.872677   6.615399   4.429940   4.141359
    29  H    6.424240   5.715685   6.386438   3.788990   3.705098
    30  H    6.812483   5.805545   6.312158   4.718309   4.531071
    31  H    6.492816   5.345781   6.328961   4.206126   3.665173
                   26         27         28         29         30
    26  H    0.000000
    27  H    1.782491   0.000000
    28  C    5.469244   3.932547   0.000000
    29  H    4.772489   3.098527   1.091076   0.000000
    30  H    5.802469   4.318673   1.092164   1.774382   0.000000
    31  H    5.222418   3.923053   1.086911   1.793657   1.782961
                   31
    31  H    0.000000
 Symmetry turned off by external request.
 Stoichiometry    C8H15N3O4S
 Framework group  C1[X(C8H15N3O4S)]
 Deg. of freedom    87
 Full point group                 C1      NOp   1
 Rotational constants (GHZ):      0.6936580      0.1914311      0.1572289
 Standard basis: 6-31G(d) (6D, 7F)
   274 basis functions,   532 primitive gaussians,   274 cartesian basis functions
    66 alpha electrons       66 beta electrons
       nuclear repulsion energy      1215.0938043781 Hartrees.
 NAtoms=   31 NActive=   31 NUniq=   31 SFac= 1.00D+00 NAtFMM=   60 NAOKFM=F Big=F
 Integral buffers will be    131072 words long.
 Raffenetti 2 integral format.
 Two-electron integral symmetry is turned off.
 R6APFD:  NTU= -4 IXU= 1 FactS= 1.050
 Nuclear repulsion after empirical dispersion term =     1215.0711024067 Hartrees.
 One-electron integrals computed using PRISM.
 NBasis=   274 RedAO= T EigKep=  1.07D-03  NBF=   274
 NBsUse=   274 1.00D-06 EigRej= -1.00D+00 NBFU=   274
 Initial guess from the checkpoint file:  "/localscratch/enas93.64551472.0/Gau-4334.chk"
 B after Tr=     0.059477    0.002158    0.016392
         Rot=    0.999985   -0.001889    0.001161    0.005055 Ang=  -0.63 deg.
 ExpMin= 1.17D-01 ExpMax= 2.19D+04 ExpMxC= 3.30D+03 IAcc=1 IRadAn=         1 AccDes= 0.00D+00
 Harris functional with IExCor= 3731 and IRadAn=       1 diagonalized for initial guess.
 HarFok:  IExCor= 3731 AccDes= 0.00D+00 IRadAn=         1 IDoV= 1 UseB2=F ITyADJ=14
 ICtDFT=  3500011 ScaDFX=  1.000000  1.000000  1.000000  1.000000
 FoFCou: FMM=F IPFlag=           0 FMFlag=      100000 FMFlg1=           0
         NFxFlg=           0 DoJE=T BraDBF=F KetDBF=T FulRan=T
         wScrn=  0.000000 ICntrl=     500 IOpCl=  0 I1Cent=   200000004 NGrid=           0
         NMat0=    1 NMatS0=      1 NMatT0=    0 NMatD0=    1 NMtDS0=    0 NMtDT0=    0
 Symmetry not used in FoFCou.
 Keep R1 ints in memory in canonical form, NReq=720369818.
 Requested convergence on RMS density matrix=1.00D-08 within 128 cycles.
 Requested convergence on MAX density matrix=1.00D-06.
 Requested convergence on             energy=1.00D-06.
 No special actions if energy rises.
[...]
 -0.00000107,-0.00000156,0.00000111,-0.00000008,-0.00000071,0.00001062,
 0.00001811,0.00000703,0.00002662,0.00001489,0.00001426,-0.00001512,-0.
 00001615,-0.00000469,0.00004747,0.00001318,0.00003827,-0.00007369,-0.0
 0001029,-0.00007221,0.00000506,-0.00000510,-0.00000760,-0.00000201,-0.
 00000315,-0.00000345,0.00381014,-0.02344115,-0.02719093,0.00120514,-0.
 00028233,0.00188952,-0.00027878,0.00007408,-0.00023093,-0.00118766,0.0
 0072670,0.00023722,0.00031262,0.00019851,0.00027537,0.00872213,-0.1029
 2791,-0.08301042,-0.01140114,0.10641574,0.09856843,-0.00039333,-0.0001
 2594,-0.00010284,0.00027531,0.00071704,-0.00004932,0.00015283,0.000320
 59,-0.00006161,-0.00000695,0.00012659,0.00009833,-0.00005224,-0.000396
 45,0.00029458,0.00002754,-0.00004482,0.00001548,0.00001615,0.00000984,
 -0.00000431,-0.00000870,-0.00002934,0.00001094,-0.00002390,0.00003642,
 -0.00001476,-0.00000260,0.00000248,0.00000084,-0.00000101,0.00000086,0
 .,-0.00001559,0.00003646,-0.00000891,-0.00000459,0.00006071,-0.0000129
 8,-0.00004951,-0.00006857,0.00002561,0.00005702,0.00003189,-0.00002793
 ,-0.00002169,-0.00002739,0.00001813,-0.00001954,0.00000427,0.00000788,
 0.00000007,-0.00000060,0.00000017,0.00140127,0.00219909,-0.00228296,0.
 00212388,0.00146657,-0.00047451,0.00031393,-0.00094066,0.00097012,-0.0
 0014334,-0.00009539,-0.00003534,0.00010648,0.00004140,0.00002604,-0.20
 246213,-0.12079211,0.06370180,0.00300171,0.00347350,-0.00180745,0.2134
 5740,0.00047596,-0.00006106,0.00018833,-0.00030843,-0.00023730,0.00004
 438,-0.00044502,0.00007427,0.00006361,-0.00017161,0.00009079,-0.000074
 51,0.00035724,-0.00004176,-0.00028090,0.00003583,0.00001893,-0.0000079
 9,-0.00002376,-0.00000422,0.00000195,0.00000637,0.00001721,-0.00000636
 ,-0.00001518,-0.00001014,0.00000434,0.00000058,0.00000027,-0.00000031,
 -0.00000164,-0.00000029,-0.00000009,-0.00001391,-0.00001083,0.00000653
 ,-0.00002916,-0.00002240,0.00000877,0.00004119,0.00002589,-0.00000948,
 -0.00007027,-0.00001278,-0.00000408,0.00010301,-0.00000767,0.00003353,
 0.00000338,0.00000130,-0.00000113,0.00000441,0.00000138,-0.00000113,0.
 00108757,0.00255990,0.00230802,-0.00001030,-0.00020949,-0.00035872,0.0
 0035094,-0.00015994,0.00054540,-0.00000214,-0.00032562,0.00009843,0.00
 018599,0.00008709,-0.00023939,-0.12167683,-0.14617567,0.04645974,-0.02
 282727,-0.01538773,0.00943733,0.13254081,0.15081853,-0.00018231,-0.000
 14818,-0.00045207,-0.00006718,0.00015385,0.00040491,0.00017794,-0.0005
 3679,0.00029133,-0.00000154,0.00010690,0.00008580,-0.00000554,0.001074
 32,-0.00026389,-0.00000156,0.00003157,-0.00002058,-0.00001106,-0.00000
 572,0.00000305,0.00000476,0.00001569,-0.00000676,0.00000809,-0.0000188
 3,0.00001063,0.00000095,-0.00000113,-0.00000089,0.00000014,-0.00000076
 ,-0.00000049,0.00000385,-0.00002076,0.00002163,-0.00000848,-0.00002918
 ,0.00003028,0.00002940,0.00002864,-0.00001950,-0.00003434,-0.00000980,
 0.00001992,0.00004513,-0.00000876,-0.00000843,0.00000612,-0.00000155,-
 0.00000399,0.00000050,-0.00000028,-0.00000414,0.02009887,0.01521052,-0
 .02670331,0.00180833,-0.00076499,0.00323345,-0.00169258,-0.00014330,0.
 00006555,-0.00040812,0.00009968,-0.00017604,0.00054335,-0.00047458,0.0
 0036662,0.06610564,0.05175714,-0.06732919,-0.01040168,-0.00664289,0.00
 532873,-0.06962537,-0.05277787,0.08163427,0.00114109,0.00070192,0.0010
 7372,-0.00305577,0.00094020,0.00040404,-0.00086953,-0.00007625,-0.0004
 4681,0.00017179,-0.00043021,-0.00036191,0.00032916,-0.00037416,-0.0002
 0608,-0.00012207,-0.00004479,0.00002062,0.00003089,-0.00000156,0.00000
 113,-0.00000557,-0.00001168,0.00000453,0.00005586,-0.00000438,0.000001
 58,0.00000260,-0.00000292,0.00000120,0.00000402,-0.00000042,0.00000031
 ,0.00005187,0.00001819,-0.00001800,0.00009465,-0.00001543,-0.00002960,
 -0.00003259,0.00003789,-0.00000404,0.00005777,-0.00002752,0.00001005,-
 0.00015982,0.00008235,-0.00004634,0.00001766,-0.00000453,-0.00000014,-
 0.00000850,-0.00000470,0.00000405,0.00171480,-0.00102200,-0.00089152,0
 .00020143,-0.00020946,0.00089985,0.00022663,0.00015492,0.00005660,-0.0
 0008656,-0.00004477,0.00002173,0.00052939,0.00007460,0.00020785,-0.269
 51607,0.10282076,-0.06557595,0.00144025,-0.00178326,0.00113509,-0.0177
 7749,0.01038009,-0.00639183,0.28571871,-0.00144492,-0.00299128,-0.0028
 7308,0.00138447,-0.00031338,0.00164585,0.00117627,-0.00010084,0.001058
 49,-0.00063197,0.00154224,0.00047082,-0.00057289,0.00078399,-0.0003394
 1,0.00015511,0.00025573,-0.00007286,-0.00014157,-0.00004361,0.00001488
 ,0.00003582,0.00013386,-0.00004773,-0.00003733,-0.00012254,0.00003905,
 0.00000305,0.00000009,0.00000035,-0.00000732,-0.00000268,0.00000178,-0
 .00004957,-0.00016938,0.00003962,-0.00019962,-0.00023152,0.00006986,0.
 00026986,0.00023553,-0.00007699,-0.00043627,-0.00009615,-0.00002190,0.
 00074989,-0.00020812,0.00021856,0.00000987,0.00001004,-0.00000229,0.00
 001502,0.00001416,0.00000109,-0.00009985,-0.00070016,0.00139973,-0.000
 55978,-0.00036137,-0.00077363,0.00026822,0.00007438,0.00008469,-0.0001
 0912,0.00009615,-0.00008253,-0.00017204,0.00043146,-0.00022577,0.10492
 675,-0.09805188,0.03114455,0.02498122,-0.00978946,0.00894103,-0.018495
 92,0.00896324,-0.00691080,-0.11120999,0.10049147,-0.00147166,-0.002653
 90,-0.00311950,0.00032125,0.00195259,0.00119084,0.00120772,-0.00016903
 ,0.00087431,-0.00066785,0.00156662,0.00076600,-0.00069575,0.00071542,-
 0.00020789,0.00019589,0.00014161,-0.00003484,-0.00009683,-0.00001689,0
 .00000473,0.00001532,0.00006500,-0.00002216,-0.00008319,-0.00004007,0.
 00000675,-0.00000226,0.00000532,0.00000167,-0.00000854,-0.00000041,0.0
 0000120,-0.00007964,-0.00007965,0.00002012,-0.00019578,-0.00008068,0.0
 0003399,0.00013747,0.00007942,-0.00001381,-0.00028150,-0.00003282,-0.0
 0008783,0.00068059,-0.00023036,0.00022817,-0.00002175,0.00001986,0.000
 01416,0.00001397,0.00001179,0.00000070,-0.02546002,0.00999322,-0.00931
 927,0.00111610,0.00042863,-0.00871300,0.00056298,-0.00030806,0.0001860
 1,0.00046851,0.00006177,0.00005471,-0.00268985,0.00075433,-0.00009706,
 -0.06517336,0.03123899,-0.06280685,0.01251600,-0.00430587,0.00443808,0
 .00934110,-0.00543673,0.00353136,0.07008304,-0.03369512,0.07306217,-0.
 00228373,-0.00100040,0.00018679,-0.00267645,-0.00047629,0.00041685,0.0
 0051955,0.00009680,-0.00020691,-0.00069244,0.00099905,-0.00076724,-0.0
 0021773,0.00015585,0.00007275,-0.04208295,0.00448600,-0.00070147,0.001
 08084,-0.00484900,0.00202795,-0.00162964,-0.00009997,0.00000076,0.0020
 7005,-0.00186382,0.00055853,0.00098886,-0.00059134,0.00023848,0.000102
 13,0.00003317,0.00001815,-0.00171667,0.00632150,-0.00213343,-0.1884419
 3,0.04463556,-0.01697013,0.00571545,0.01635337,-0.00611912,-0.00189769
 ,-0.00627048,0.00261633,0.00167863,-0.00224778,0.00151295,-0.00087406,
 -0.00027495,-0.00024386,-0.00017521,0.00038568,-0.00011071,-0.00002072
 ,-0.00002273,0.00001013,-0.00004763,-0.00000993,-0.00005596,0.00003362
 ,-0.00000147,-0.00000155,0.00004622,-0.00001613,-0.00000319,0.00000175
 ,0.00000407,0.00000787,0.00001481,-0.00000934,0.00001813,0.00001231,-0
 .00001550,-0.00001604,0.00002442,0.00000569,-0.00000331,-0.00006962,0.
 00003326,0.00005680,0.53164976,0.00048974,0.00033789,0.00089185,-0.001
 31875,0.00042351,-0.00050835,-0.00022129,-0.00012820,-0.00030701,0.000
 14015,-0.00074420,0.00060287,0.00004506,0.00002727,0.00003141,-0.00046
 954,0.02292575,-0.00911635,-0.00136792,-0.00335522,0.00271406,-0.00088
 976,-0.00296578,0.00086239,-0.00695080,0.00035580,0.00163909,0.0013249
 6,-0.00027553,0.00021131,0.00006270,0.00007924,-0.00029639,-0.00125449
 ,-0.00598119,0.00170579,0.03999689,-0.12494035,0.02113794,0.02842750,-
 0.02540548,0.00964557,0.00535397,-0.00335629,-0.00047741,-0.00095931,0
 .00077313,-0.00047723,0.00132255,-0.00015987,-0.00002415,-0.00112744,0
 .00092309,-0.00003088,0.00000814,0.00000030,-0.00001136,0.00001450,-0.
 00003040,0.00003390,-0.00002917,0.00000559,0.00000140,-0.00000997,0.00
 000606,-0.00000141,0.00000043,0.00000483,-0.00000369,-0.00001409,-0.00
 000717,-0.00000827,0.00000673,0.00000470,-0.00000509,-0.00001610,-0.00
 000474,0.00000590,0.00001593,0.00000910,-0.00003491,0.07231927,0.60741
 565,-0.00129517,0.00285052,0.00263686,-0.00189348,-0.00150396,-0.00097
 060,-0.00021977,-0.00033489,-0.00080294,0.00186237,0.00000054,-0.00187
 903,-0.00003938,0.00001038,0.00012891,0.00098926,-0.00845607,-0.001115
 73,0.00047194,0.00243585,0.00310471,0.00012758,0.00071091,-0.00117817,
 0.00272913,0.00201398,0.00479492,-0.00042292,0.00018977,0.00017555,-0.
 00000403,-0.00030211,-0.00054742,0.00195262,0.00105319,-0.00112171,-0.
 01484473,0.02047230,-0.07552896,-0.01041749,0.01036705,-0.00057125,-0.
 00197297,-0.00137414,-0.00383501,0.00096457,-0.00074741,0.00189676,-0.
 00022380,0.00004411,0.00046516,0.00039466,0.00002024,0.00103778,-0.000
 01780,-0.00001375,0.00003324,-0.00000862,0.00000138,-0.00004813,0.0000
 1404,0.00000109,0.00000372,0.00001347,-0.00000725,0.00000254,-0.000012
 82,0.00000565,-0.00000206,0.00003505,-0.00002052,0.00003443,-0.0000010
 3,0.00000045,-0.00002356,0.00000195,0.00000340,-0.00002163,0.00002346,
 -0.00001075,0.00000135,-0.02969672,-0.00771087,0.60013326,-0.00137157,
 -0.00532036,-0.00454886,-0.00207247,0.00209639,0.00239121,0.00152497,0
 .00051333,0.00175640,-0.00142160,0.00214573,0.00076592,-0.00047623,0.0
 0053163,-0.00015764,0.00006016,0.00491734,0.00095031,-0.00018556,-0.00
 013621,-0.00034390,0.00012445,-0.00055806,0.00032276,-0.00125808,-0.00
 055303,-0.00052496,0.00007721,0.00000825,-0.00000561,-0.00000965,0.000
 04843,0.00004529,0.00017604,-0.00071217,0.00019919,-0.02778562,0.00122
 887,0.01951761,-0.00039961,-0.00144854,0.00102702,-0.00009419,0.000040
 26,-0.00044713,0.00157644,-0.00091912,0.00009329,0.00027356,-0.0001915
 8,-0.00004429,-0.00022712,0.00014778,-0.00022977,-0.00001942,-0.000036
 60,-0.00004126,-0.00007220,-0.00008335,-0.00004721,0.00001266,0.000007
 08,-0.00000135,0.00006975,-0.00001744,0.00000031,0.00001442,0.00000482
 ,0.00001061,-0.00003228,-0.00004624,-0.00002317,0.00006157,-0.00004570
 ,0.00000055,0.00000553,0.00001313,0.00001841,-0.00006491,0.00017261,0.
 00016219,-0.13477028,-0.00913680,0.13116726,0.15814744,-0.00194255,-0.
 00014736,-0.00101839,0.00115038,-0.00095852,0.00024845,0.00057277,-0.0
 0009837,0.00033834,0.00050863,0.00003800,0.00018597,-0.00014232,0.0002
 4170,-0.00002572,-0.00025520,-0.00472732,0.00093480,-0.00072126,0.0004
 5161,0.00042372,0.00045301,0.00063018,-0.00034389,0.00025725,0.0000402
 3,0.00091921,-0.00003037,-0.00001016,-0.00000738,-0.00002983,-0.000054
 54,-0.00012086,-0.00191543,0.00137895,-0.00126897,0.01545564,-0.002102
 54,-0.01353658,0.00383774,0.00221737,-0.00157826,-0.00185003,-0.001626
 29,-0.00045642,-0.00055194,-0.00221437,-0.00089572,-0.00030414,0.00040
 389,0.00060815,0.00017598,-0.00004498,0.00010386,0.00000645,-0.0000133
 6,-0.00000884,-0.00001540,-0.00006632,-0.00001067,-0.00001851,0.000010
 63,0.00000139,0.00001935,-0.00000382,0.00000407,-0.00000529,0.00000594
 ,-0.00000208,0.00000338,-0.00006121,0.00000330,0.00003766,-0.00002019,
 -0.00001032,-0.00003541,0.00000959,-0.00000860,0.00006224,0.00012073,0
 .00003373,-0.01297422,-0.05113021,0.01937871,0.00707051,0.05405186,-0.
 00145704,-0.00107853,-0.00153068,0.00294868,0.00083947,-0.00060238,0.0
 0044424,-0.00019939,0.00069442,-0.00014616,0.00034445,0.00001138,-0.00
 012630,0.00018820,-0.00004031,-0.00155863,0.00166794,-0.00037197,-0.00
 001695,-0.00042406,-0.00029000,-0.00018399,0.00011541,0.00004351,-0.00
 022500,-0.00057728,-0.00040659,0.00002620,-0.00000414,-0.00001188,-0.0
 0000367,0.00002618,0.00007431,0.00020556,-0.00053150,0.00026610,-0.006
 98663,-0.00115367,0.01266087,-0.00028616,0.00039826,0.00070789,0.00063
 917,0.00101563,-0.00010251,-0.00030034,-0.00099661,0.00016309,-0.00051
 908,0.00015970,-0.00040096,-0.00014138,0.00007506,-0.00004763,-0.00002
 629,-0.00001946,0.00000556,-0.00002449,-0.00002012,-0.00004786,0.00001
 453,0.00000072,0.00000246,0.00002941,-0.00000825,0.00000320,0.00000002
 ,0.00000250,0.00000267,0.00000795,-0.00002854,-0.00000167,0.00001958,-
 0.00001653,-0.00000562,0.00000411,0.00000567,-0.00000136,-0.00000134,0
 .00005400,0.00008831,0.13472487,0.01443806,-0.24660554,-0.14164528,-0.
 01686121,0.25792623,-0.00195851,0.00050599,0.00086160,0.00020419,-0.00
 037277,-0.00048165,0.00028302,-0.00028312,0.00009163,-0.00036229,-0.00
 056043,-0.00041239,-0.00011664,0.00020482,0.00002098,0.00147979,0.0039
 6238,-0.00460794,-0.00010897,0.00035303,0.00049457,0.00005718,-0.00071
 384,0.00010799,-0.00151521,0.00029936,0.00093112,0.00000672,0.00005528
 ,0.00000568,-0.00002222,-0.00000694,-0.00010349,0.00004526,-0.00128067
 ,0.00073676,-0.02814884,-0.00698964,-0.02330268,-0.00103846,-0.0030793
 1,0.00077537,0.00112147,0.00095418,-0.00053593,0.00026140,-0.00064880,
 0.00058064,0.00004173,-0.00001652,0.00019639,-0.00019724,0.00028272,0.
 00009042,-0.00000427,-0.00002566,0.00000384,-0.00002050,-0.00003242,-0
 .00003006,0.00000250,0.00000375,0.00000182,0.00002458,-0.00000639,0.00
 000154,0.00000006,0.00000434,0.00000153,0.00000706,-0.00002956,0.00000
 627,0.00001917,-0.00001190,-0.00001082,-0.00000547,0.00000537,-0.00000
 247,0.00000481,0.00004918,0.00003864,-0.10270625,-0.05418550,-0.095421
 05,0.01008065,0.00762147,0.01428132,0.12498462,-0.00126474,0.00203987,
 0.00044609,0.00022634,-0.00088584,-0.00027978,0.00041511,-0.00034514,0
 .00021733,0.00039480,-0.00128034,-0.00047647,0.00001495,0.00015974,-0.
 00004265,-0.00009884,-0.00310145,0.00180761,-0.00033346,-0.00005806,-0
 .00091412,0.00038423,0.00035642,-0.00000787,0.00015035,-0.00048022,-0.
 00088066,-0.00002375,-0.00002389,0.00002345,-0.00001679,0.00005517,0.0
 0014364,-0.00096195,0.00181551,0.00039068,0.01456299,0.00701058,0.0176
 6092,0.00267836,0.00185242,0.00040475,-0.00156163,0.00009124,0.0005557
 5,-0.00080476,-0.00104970,0.00139583,0.00001866,-0.00011541,-0.0005411
 7,0.00012676,-0.00008365,-0.00007325,0.00002823,-0.00002752,-0.0000405
 1,-0.00000475,-0.00002306,0.00003697,-0.00001784,0.00000499,-0.0000009
 9,-0.00000393,0.00000287,-0.00000242,0.00001173,-0.00000049,0.00000181
 ,-0.00003204,-0.00000124,-0.00002650,-0.00000040,-0.00000168,0.0000165
 6,-0.00000390,0.00000434,0.00002452,-0.00001089,0.00001850,0.00000694,
 -0.05839599,-0.10414645,-0.09732445,0.00056895,0.00079877,0.00324298,0
 .05651151,0.10722632,0.00256184,-0.00100376,0.00024819,-0.00079270,0.0
 0023115,0.00076026,-0.00065442,0.00045972,-0.00044895,-0.00127003,-0.0
 0013813,0.00095270,0.00019403,-0.00030031,-0.00002121,0.00189697,0.001
 08949,-0.00064015,0.00031176,0.00023568,-0.00011292,-0.00004371,-0.000
 45893,0.00019923,-0.00022468,0.00043405,-0.00026902,-0.00003545,0.0000
 2586,-0.00002794,0.00000725,0.00001472,-0.00000977,-0.00003379,-0.0006
 4012,-0.00019379,-0.00553945,0.00412583,0.00084525,-0.00208713,-0.0023
 7860,0.00062897,0.00108808,-0.00020165,0.00027363,0.00013518,0.0019173
 9,-0.00142587,0.00044594,-0.00021419,0.00011165,0.00002227,0.00001918,
 0.00001190,0.00001790,0.00003892,-0.00000559,0.00003629,0.00004349,0.0
 0004951,-0.00000940,-0.00000485,-0.00000215,-0.00003961,0.00001097,-0.
 00000269,-0.00000101,-0.00000484,-0.00000352,-0.00000617,0.00004022,-0
 .00000719,-0.00002891,0.00002122,0.00001136,0.00000382,-0.00000924,0.0
 0000166,-0.00000011,-0.00008109,-0.00007591,-0.09813195,-0.09370365,-0
 .21504633,-0.01321337,-0.01284256,-0.01969280,0.10997650,0.09986836,0.
 22596290,0.00091958,-0.00069608,-0.00006790,-0.00043865,0.00066775,0.0
 0001601,-0.00025959,0.00018930,-0.00015942,-0.00058750,0.00012818,0.00
 028789,0.00002903,-0.00017341,0.00001763,-0.00136931,0.00784445,-0.002
 50360,0.00038853,0.00131210,-0.00066899,0.00052341,0.00077898,-0.00025
 509,0.00146148,-0.00208258,0.00065248,-0.00051805,0.00022939,-0.000100
 40,-0.00001357,-0.00012957,0.00008361,-0.00294534,-0.00402344,0.001268
 50,0.00337310,0.03539236,-0.00840479,-0.00710184,0.00012930,0.00023866
 ,0.00020859,-0.00145911,0.00047491,0.00031235,0.00046898,-0.00011244,0
 .00038384,-0.00008132,0.00000883,-0.00004055,0.00004879,-0.00003547,-0
 .00002418,0.00000429,0.00003816,-0.00000311,0.00006220,-0.00004576,0.0
 0003838,-0.00001105,0.00000048,0.00000425,-0.00000516,0.00000031,-0.00
 000392,-0.00000400,0.00000259,0.00002722,0.00002743,0.00002193,-0.0000
 1932,0.00000448,-0.00000282,0.00002453,-0.00000207,-0.00001410,-0.0000
 2490,-0.00006247,0.00001041,-0.06363542,-0.07157758,0.01574439,-0.0019
 4408,-0.01644057,0.00030310,-0.00241934,-0.01255731,0.00541406,0.07365
 440,0.00010736,-0.00047954,-0.00018324,0.00004180,0.00020730,0.0001074
 8,0.00001453,0.00007420,-0.00000196,-0.00032828,0.00017734,0.00008457,
 -0.00003470,-0.00000074,0.00000795,-0.00159887,-0.00333544,0.00176976,
 -0.00012555,-0.00050422,0.00028788,-0.00010365,-0.00038584,0.00012596,
 -0.00007288,0.00013682,-0.00008117,0.00019783,-0.00002447,0.00004608,0
 .00000985,0.00001635,0.00000405,-0.00426107,0.00154554,-0.00077902,0.0
 0106677,-0.01744309,0.00444905,0.00229140,0.00025932,-0.00066580,0.000
 09593,0.00024100,0.00009685,0.00026321,-0.00003162,-0.00004394,-0.0000
 1913,0.00006751,0.00000953,0.00003275,0.00006639,0.00000213,-0.0000170
 5,-0.00000309,0.00000929,-0.00000544,0.00000326,-0.00001481,0.00000778
 ,-0.00000171,0.00000034,0.00000890,-0.00000255,-0.00000058,-0.00000102
 ,0.00000112,0.00000103,0.00000337,0.00000241,0.00000692,0.00000428,-0.
 00000205,-0.00000607,0.00000406,-0.00000107,-0.00000397,-0.00001017,0.
 00000168,0.00000926,-0.05670994,-0.31066082,0.05824668,-0.00030990,0.0
 0288013,-0.00065495,-0.00256992,-0.00981262,0.00340567,0.06201775,0.33
 700848,0.00033893,-0.00054190,-0.00032244,0.00049050,-0.00002234,0.000
 17899,-0.00004358,0.00008290,0.00002212,-0.00050555,-0.00017497,0.0003
 9224,-0.00000863,-0.00000835,0.00001021,0.00056215,0.00078292,0.001486
 08,0.00006466,0.00043176,0.00018519,0.00004285,0.00005991,-0.00000244,
 -0.00019728,0.00022477,0.00001767,-0.00009339,0.00002652,-0.00000677,-
 0.00000920,0.00000806,-0.00001234,0.00120119,-0.00044169,-0.00139158,0
 .00020028,0.00579304,-0.00416095,-0.00069898,0.00028782,-0.00015552,-0
 .00019597,0.00050232,0.00030921,-0.00011803,0.00015487,-0.00067154,-0.
 00009109,0.00009689,0.00020377,0.00000272,-0.00001358,0.00005291,-0.00
 000538,0.00000576,0.00000920,0.00000539,-0.00000838,-0.00000818,-0.000
 00393,0.00000234,0.00000072,-0.00000054,-0.00000048,0.00000308,-0.0000
 0949,0.00000135,-0.00000347,0.00001470,-0.00001229,0.00001474,0.000015
 05,-0.00000526,-0.00001091,-0.00001263,-0.00000149,-0.00001690,0.00002
 483,0.00002958,-0.00000649,0.01269423,0.05879548,-0.06515110,0.0028454
 8,0.02581276,-0.00249024,-0.00429613,-0.02563336,0.00792856,-0.0122131
 7,-0.06623495,0.06359619\\0.00000073,-0.00000081,-0.00000199,-0.000000
 03,-0.00000060,-0.00000019,-0.00000002,0.00000178,-0.00000192,-0.00000
 062,0.00000204,-0.00000342,0.00000031,0.00000087,-0.00000100,-0.000000
 23,0.00000097,0.00000088,-0.00000014,-0.00000106,-0.00000281,-0.000000
 10,-0.00000025,-0.00000162,0.00000022,0.00000011,0.00000040,-0.0000000
 9,-0.00000137,-0.00000439,-0.00000010,-0.00000072,-0.00000203,0.000000
 13,0.00000099,0.00000326,0.00127664,0.00173726,-0.00161817,0.00000036,
 -0.00000006,-0.00000187,-0.00000091,-0.00000127,-0.00000323,0.00000046
 ,0.00000007,-0.00000257,0.00000019,-0.00000131,-0.00000446,0.00000002,
 0.00000064,0.00000123,0.00019701,0.00051936,-0.00043725,0.00000010,0.0
 0000116,0.00000273,0.00000012,0.00000062,0.00000154,0.,0.00000051,0.00
 000417,0.00000034,0.00000283,0.00000288,-0.00000025,-0.00000211,0.0000
 0235,-0.00000039,-0.00000272,0.00000387,-0.00000040,-0.00000250,0.0000
 0114,-0.00000054,-0.00000210,0.00000161,-0.00147319,-0.00225448,0.0020
 5812,-0.00000011,-0.00000074,0.00000055,0.00000032,0.00000193,-0.00000
 009,0.00000016,0.00000098,0.00000227\\\@


 NEVER TEACH A PIG TO SING.
 IT WASTES YOUR TIME AND ANNOYS THE PIG.
     -- SEEN ON A GREETING CARD
 Job cpu time:       0 days  0 hours 40 minutes 52.0 seconds.
 File lengths (MBytes):  RWF=    295 Int=      0 D2E=      0 Chk=      7 Scr=      1
 Normal termination of Gaussian 09 at Wed Mar 24 04:16:21 2021.
